 Entering Gaussian System
 *********************************************
 Gaussian 98:
 frequency output generated by the xtb code
 *********************************************
                         Standard orientation:
 --------------------------------------------------------------------
  Center     Atomic     Atomic              Coordinates (Angstroms)
  Number     Number      Type              X           Y           Z
 --------------------------------------------------------------------
    1          6             0       -2.629387    2.565896   -0.895221
    2          6             0       -3.260548    3.839324   -1.363714
    3          6             0       -3.424409    1.481724   -0.489024
    4          6             0       -2.826533    0.322601   -0.044546
    5          6             0       -3.660426   -0.796713    0.428101
    6          6             0       -3.511417   -1.300166    1.717478
    7          6             0       -4.315891   -2.333636    2.161317
    8          6             0       -5.274289   -2.879420    1.323592
    9          6             0       -5.432820   -2.379698    0.041888
   10          6             0       -4.635608   -1.340425   -0.401897
   11          6             0       -1.411754    0.252402   -0.048682
   12          6             0       -0.689072   -0.913894    0.322862
   13          6             0        0.665681   -0.937196    0.297600
   14          6             0        1.413665    0.202766   -0.104232
   15          6             0        2.829512    0.228155   -0.139328
   16          6             0        3.638812   -0.965683    0.162898
   17          6             0        4.606122   -0.919028    1.161753
   18          6             0        5.383796   -2.029264    1.435605
   19          6             0        5.213493   -3.194361    0.706730
   20          6             0        4.261951   -3.244663   -0.298364
   21          6             0        3.476547   -2.139005   -0.568496
   22          6             0        3.453122    1.408710   -0.479165
   23          6             0        2.682591    2.533816   -0.815674
   24          6             0        3.344408    3.819982   -1.199167
   25          7             0        1.372126    2.509866   -0.820862
   26          6             0        0.734091    1.388670   -0.469969
   27          6             0       -0.706182    1.404817   -0.468813
   28          7             0       -1.319520    2.522735   -0.869811
   29          1             0       -3.990373    3.639551   -2.146338
   30          1             0       -3.776006    4.326686   -0.536905
   31          1             0       -2.489436    4.503488   -1.741715
   32          1             0       -4.501598    1.567349   -0.501476
   33          1             0       -2.773426   -0.864670    2.376215
   34          1             0       -4.194533   -2.714294    3.165074
   35          1             0       -5.898100   -3.690072    1.670163
   36          1             0       -6.180968   -2.800628   -0.613970
   37          1             0       -4.754275   -0.953714   -1.404082
   38          1             0       -1.242502   -1.793270    0.618477
   39          1             0        1.200139   -1.827462    0.595632
   40          1             0        4.733864   -0.010571    1.733070
   41          1             0        6.126199   -1.985194    2.219153
   42          1             0        5.822954   -4.060303    0.919137
   43          1             0        4.131483   -4.148900   -0.874971
   44          1             0        2.743827   -2.173544   -1.362325
   45          1             0        4.531868    1.463646   -0.512758
   46          1             0        3.993975    4.165712   -0.396537
   47          1             0        3.954574    3.678887   -2.090131
   48          1             0        2.584474    4.568993   -1.398571
 --------------------------------------------------------------------
     1 basis functions        1 primitive gaussians
     1 alpha electrons        1 beta electrons

 Harmonic frequencies (cm**-1), IR intensities (km*mol⁻¹),
 Raman scattering activities (A**4/amu), Raman depolarization ratios,
 reduced masses (AMU), force constants (mDyne/A) and normal coordinates:
                      1                      2                      3
                        a                      a                      a 
 Frequencies --    25.0772                29.6577                38.2220
 Red. masses --    10.4607                10.1467                10.6417
 Frc consts  --     0.0000                 0.0000                 0.0000
 IR Inten    --     0.0128                 0.0838                 0.0069
 Raman Activ --     0.0000                 0.0000                 0.0000
 Depolar     --     0.0000                 0.0000                 0.0000
 Atom AN      X      Y      Z        X      Y      Z        X      Y      Z
   1   6    -0.00   0.09   0.23    -0.00  -0.00   0.01     0.02  -0.05   0.01
   2   6    -0.00   0.14   0.37    -0.01   0.02   0.07     0.03  -0.04   0.01
   3   6     0.00   0.07   0.18     0.00   0.00   0.02     0.01  -0.04   0.00
   4   6     0.00   0.03   0.08     0.00  -0.03  -0.06    -0.01  -0.06  -0.00
   5   6     0.00  -0.00  -0.00     0.01  -0.00  -0.00    -0.07  -0.02  -0.02
   6   6    -0.01  -0.10  -0.04     0.19  -0.09  -0.06    -0.06  -0.10  -0.06
   7   6    -0.01  -0.15  -0.14     0.18  -0.06   0.02    -0.18  -0.02  -0.06
   8   6     0.01  -0.09  -0.19    -0.00   0.07   0.15    -0.31   0.16  -0.03
   9   6     0.02   0.02  -0.15    -0.19   0.16   0.21    -0.31   0.25   0.00
  10   6     0.01   0.06  -0.06    -0.18   0.12   0.13    -0.19   0.16   0.01
  11   6     0.00   0.02   0.03     0.00  -0.06  -0.15    -0.01  -0.07   0.01
  12   6     0.00   0.00  -0.01     0.00  -0.09  -0.27    -0.00  -0.07   0.01
  13   6    -0.00  -0.01  -0.04     0.00  -0.09  -0.27     0.00  -0.06   0.03
  14   6    -0.00  -0.01  -0.06     0.00  -0.04  -0.15     0.01  -0.06   0.03
  15   6    -0.00  -0.02  -0.09     0.00  -0.01  -0.05     0.01  -0.04   0.03
  16   6     0.00  -0.00   0.00     0.01   0.00  -0.01     0.07  -0.00   0.02
  17   6    -0.04   0.08   0.04    -0.18  -0.03   0.18     0.19   0.12  -0.10
  18   6    -0.04   0.11   0.15    -0.19  -0.02   0.25     0.32   0.19  -0.15
  19   6    -0.01   0.05   0.23    -0.00   0.03   0.13     0.31   0.14  -0.07
  20   6     0.03  -0.03   0.19     0.19   0.06  -0.05     0.18   0.02   0.06
  21   6     0.04  -0.05   0.08     0.19   0.05  -0.12     0.06  -0.05   0.11
  22   6    -0.00  -0.05  -0.18     0.00   0.02   0.04    -0.01  -0.03   0.03
  23   6    -0.00  -0.06  -0.23    -0.00   0.01   0.04    -0.02  -0.04   0.02
  24   6     0.00  -0.10  -0.36    -0.01   0.04   0.13    -0.03  -0.04   0.02
  25   7    -0.00  -0.04  -0.16    -0.00  -0.01  -0.02    -0.02  -0.07   0.03
  26   6    -0.00  -0.01  -0.06    -0.00  -0.03  -0.10    -0.00  -0.07   0.03
  27   6    -0.00   0.02   0.04    -0.00  -0.04  -0.11    -0.00  -0.07   0.02
  28   7     0.00   0.06   0.15    -0.00  -0.02  -0.04     0.02  -0.07   0.02
  29   1    -0.02   0.06   0.12    -0.01   0.02   0.03     0.01  -0.01   0.00
  30   1     0.02   0.03   0.13     0.01  -0.00   0.03     0.01  -0.01   0.00
  31   1    -0.00   0.04   0.10    -0.00   0.01   0.02     0.01  -0.01   0.00
  32   1     0.00   0.03   0.07     0.00   0.01   0.03     0.00  -0.01   0.00
  33   1    -0.01  -0.04   0.00     0.10  -0.05  -0.04     0.01  -0.07  -0.02
  34   1    -0.00  -0.07  -0.05     0.10  -0.04  -0.01    -0.05  -0.02  -0.03
  35   1     0.00  -0.04  -0.08    -0.00   0.03   0.06    -0.12   0.07  -0.01
  36   1     0.01   0.02  -0.06    -0.10   0.07   0.09    -0.12   0.11   0.01
  37   1     0.01   0.04  -0.01    -0.09   0.05   0.05    -0.06   0.06   0.01
  38   1     0.00   0.00  -0.00     0.00  -0.04  -0.10     0.00  -0.02  -0.00
  39   1    -0.00  -0.00  -0.01     0.00  -0.03  -0.11    -0.00  -0.02   0.01
  40   1    -0.02   0.04  -0.01    -0.09  -0.02   0.08     0.06   0.04  -0.05
  41   1    -0.02   0.05   0.05    -0.10  -0.01   0.11     0.12   0.08  -0.07
  42   1    -0.00   0.02   0.09    -0.00   0.01   0.05     0.12   0.06  -0.03
  43   1     0.02  -0.02   0.07     0.10   0.03  -0.04     0.05  -0.00   0.04
  44   1     0.02  -0.03   0.02     0.10   0.02  -0.07    -0.01  -0.04   0.06
  45   1    -0.00  -0.02  -0.06     0.00   0.01   0.04    -0.00  -0.01   0.01
  46   1     0.02  -0.02  -0.13    -0.02   0.01   0.05    -0.01  -0.01   0.01
  47   1    -0.02  -0.05  -0.12     0.01   0.03   0.04    -0.01  -0.01   0.01
  48   1     0.00  -0.03  -0.10    -0.00   0.01   0.03    -0.01  -0.01   0.00
                      4                      5                      6
                        a                      a                      a 
 Frequencies --    54.6884                58.6351                72.0091
 Red. masses --     9.9546                10.1036                10.4844
 Frc consts  --     0.0000                 0.0000                 0.0000
 IR Inten    --     0.0490                 0.2010                 0.0147
 Raman Activ --     0.0000                 0.0000                 0.0000
 Depolar     --     0.0000                 0.0000                 0.0000
 Atom AN      X      Y      Z        X      Y      Z        X      Y      Z
   1   6    -0.00   0.01  -0.05     0.01  -0.07  -0.05     0.01  -0.11   0.06
   2   6    -0.00  -0.00  -0.10    -0.02  -0.15  -0.22    -0.06  -0.11   0.16
   3   6    -0.00   0.02  -0.02     0.03  -0.06   0.01     0.06  -0.17  -0.01
   4   6    -0.01   0.02  -0.01     0.05  -0.02   0.11     0.12  -0.16  -0.04
   5   6     0.02   0.02  -0.00     0.02  -0.02   0.07     0.09  -0.14  -0.05
   6   6     0.23  -0.17  -0.10     0.06  -0.21  -0.01    -0.04  -0.06  -0.00
   7   6     0.31  -0.24  -0.11     0.02  -0.21  -0.11    -0.22   0.11   0.06
   8   6     0.16  -0.11  -0.03    -0.09  -0.02  -0.11    -0.26   0.18   0.06
   9   6    -0.07   0.09   0.08    -0.14   0.18  -0.03    -0.10   0.05  -0.00
  10   6    -0.14   0.15   0.10    -0.08   0.17   0.06     0.08  -0.10  -0.06
  11   6    -0.00   0.02  -0.03     0.05   0.02   0.16     0.12  -0.08  -0.03
  12   6    -0.00   0.02  -0.04     0.08   0.06   0.22     0.17  -0.04  -0.02
  13   6    -0.00   0.03  -0.01     0.08   0.09   0.21     0.17   0.02  -0.04
  14   6     0.00   0.03  -0.00     0.05   0.08   0.15     0.12   0.05  -0.07
  15   6     0.01   0.02  -0.01     0.05   0.08   0.08     0.12   0.10  -0.13
  16   6    -0.02   0.01  -0.01     0.02   0.06   0.04     0.09   0.09  -0.12
  17   6     0.15   0.07  -0.17    -0.08  -0.09   0.14     0.08   0.05  -0.11
  18   6     0.08   0.03  -0.12    -0.14  -0.15   0.07    -0.10  -0.05   0.03
  19   6    -0.16  -0.07   0.10    -0.10  -0.06  -0.09    -0.26  -0.10   0.15
  20   6    -0.32  -0.13   0.25    -0.00   0.10  -0.19    -0.22  -0.05   0.10
  21   6    -0.23  -0.08   0.18     0.05   0.15  -0.12    -0.03   0.05  -0.04
  22   6     0.00   0.03   0.01     0.03   0.06  -0.03     0.07   0.13  -0.11
  23   6     0.00   0.04   0.04     0.01   0.03  -0.09     0.01   0.12  -0.02
  24   6     0.00   0.06   0.10    -0.01  -0.01  -0.27    -0.06   0.18   0.06
  25   7     0.00   0.04   0.03     0.01   0.03  -0.02     0.01   0.07   0.01
  26   6     0.00   0.03  -0.00     0.03   0.05   0.09     0.06   0.03  -0.03
  27   6    -0.00   0.02  -0.03     0.03   0.02   0.10     0.06  -0.04  -0.00
  28   7    -0.00   0.02  -0.05     0.01  -0.03  -0.01     0.01  -0.05   0.05
  29   1     0.01  -0.01  -0.03     0.02  -0.08  -0.08    -0.02  -0.02   0.05
  30   1    -0.01   0.00  -0.04    -0.03  -0.03  -0.09    -0.02  -0.06   0.06
  31   1     0.00  -0.00  -0.03    -0.00  -0.04  -0.06    -0.03  -0.01   0.06
  32   1    -0.00   0.01  -0.00     0.01  -0.03  -0.01     0.02  -0.07  -0.00
  33   1     0.09  -0.07  -0.04     0.04  -0.10   0.00    -0.00  -0.03  -0.00
  34   1     0.14  -0.11  -0.06     0.02  -0.11  -0.05    -0.10   0.06   0.03
  35   1     0.07  -0.05  -0.01    -0.04  -0.00  -0.05    -0.12   0.09   0.04
  36   1    -0.06   0.06   0.05    -0.07   0.10  -0.01    -0.04   0.03  -0.00
  37   1    -0.09   0.09   0.05    -0.03   0.09   0.03     0.05  -0.05  -0.03
  38   1     0.00   0.00  -0.02     0.03   0.01   0.07     0.06  -0.02   0.00
  39   1    -0.00   0.01   0.01     0.03   0.03   0.07     0.06   0.02  -0.01
  40   1     0.09   0.04  -0.09    -0.03  -0.05   0.07     0.05   0.02  -0.05
  41   1     0.06   0.02  -0.07    -0.06  -0.08   0.04    -0.04  -0.02   0.02
  42   1    -0.07  -0.03   0.04    -0.04  -0.03  -0.04    -0.12  -0.05   0.08
  43   1    -0.15  -0.06   0.12     0.01   0.05  -0.09    -0.10  -0.02   0.05
  44   1    -0.10  -0.04   0.08     0.03   0.08  -0.05    -0.00   0.02  -0.02
  45   1     0.00   0.01  -0.00     0.01   0.02  -0.02     0.02   0.05  -0.04
  46   1    -0.01   0.01   0.04     0.03   0.01  -0.11    -0.02   0.05   0.02
  47   1     0.01   0.03   0.04    -0.04  -0.03  -0.10    -0.02   0.08   0.01
  48   1    -0.00   0.02   0.03    -0.01  -0.00  -0.07    -0.03   0.04   0.03
                      7                      8                      9
                        a                      a                      a 
 Frequencies --    77.4716                80.7660                84.9195
 Red. masses --     1.6149                 1.4613                10.0439
 Frc consts  --     0.0000                 0.0000                 0.0000
 IR Inten    --     1.2974                 0.5320                 0.0065
 Raman Activ --     0.0000                 0.0000                 0.0000
 Depolar     --     0.0000                 0.0000                 0.0000
 Atom AN      X      Y      Z        X      Y      Z        X      Y      Z
   1   6    -0.00  -0.00   0.01    -0.00  -0.02  -0.05    -0.00   0.01   0.01
   2   6    -0.00   0.01   0.05     0.01  -0.00  -0.01    -0.00   0.10   0.28
   3   6     0.00   0.01   0.04     0.00   0.01   0.04    -0.01  -0.07  -0.20
   4   6     0.01   0.00   0.03     0.01   0.01   0.05    -0.01  -0.09  -0.24
   5   6     0.00   0.00   0.02     0.00   0.01   0.04     0.01  -0.07  -0.19
   6   6    -0.01  -0.02   0.02    -0.02  -0.02   0.03     0.10   0.03  -0.16
   7   6    -0.02  -0.02  -0.01    -0.03  -0.03  -0.01     0.11   0.09   0.01
   8   6    -0.01  -0.01  -0.02    -0.01  -0.01  -0.04     0.01   0.06   0.14
   9   6     0.00   0.01  -0.02     0.01   0.01  -0.03    -0.08  -0.05   0.11
  10   6     0.01   0.02   0.01     0.02   0.02   0.01    -0.08  -0.11  -0.06
  11   6     0.01  -0.00   0.00     0.00   0.00   0.02    -0.00  -0.05  -0.15
  12   6     0.01   0.01   0.03     0.01   0.01   0.03    -0.00  -0.03  -0.10
  13   6     0.01   0.01   0.04     0.01   0.00   0.01     0.00   0.03   0.10
  14   6     0.01   0.01   0.01     0.00  -0.00  -0.02     0.00   0.05   0.15
  15   6     0.01   0.02   0.04     0.00   0.00  -0.01     0.00   0.08   0.25
  16   6     0.00   0.01   0.03     0.00   0.00  -0.01    -0.01   0.05   0.20
  17   6     0.01  -0.02   0.02    -0.00   0.00  -0.00     0.08  -0.06   0.12
  18   6     0.00  -0.03  -0.01    -0.01  -0.00   0.00     0.08  -0.10  -0.06
  19   6    -0.01  -0.01  -0.03    -0.01  -0.00   0.01    -0.01  -0.03  -0.15
  20   6    -0.02   0.02  -0.03    -0.00   0.00   0.00    -0.11   0.08  -0.06
  21   6    -0.01   0.03   0.01     0.00   0.00  -0.01    -0.10   0.12   0.11
  22   6     0.00   0.02   0.03     0.00   0.01   0.01     0.01   0.06   0.21
  23   6    -0.00  -0.01  -0.05    -0.00   0.01   0.02     0.00  -0.00  -0.01
  24   6    -0.00   0.01   0.02    -0.01   0.03   0.06     0.00  -0.08  -0.28
  25   7     0.00  -0.03  -0.12    -0.00   0.00  -0.00     0.00  -0.03  -0.09
  26   6     0.00  -0.02  -0.06     0.00  -0.01  -0.03     0.00   0.01   0.03
  27   6     0.00  -0.02  -0.04     0.00  -0.02  -0.04    -0.00  -0.01  -0.04
  28   7    -0.00  -0.02  -0.05     0.00  -0.04  -0.11    -0.00   0.03   0.07
  29   1    -0.08   0.00   0.09    -0.40  -0.03   0.38    -0.06   0.07   0.13
  30   1     0.10   0.05   0.05     0.48   0.26   0.14     0.07   0.02   0.13
  31   1    -0.01  -0.04  -0.08    -0.06  -0.20  -0.48    -0.01   0.02   0.05
  32   1     0.00   0.00   0.02     0.00   0.00   0.02    -0.00  -0.03  -0.07
  33   1    -0.00  -0.01   0.01    -0.01  -0.01   0.01     0.05   0.02  -0.07
  34   1    -0.01  -0.01  -0.00    -0.01  -0.01  -0.00     0.05   0.05   0.01
  35   1    -0.01  -0.00  -0.01    -0.00  -0.01  -0.02     0.00   0.03   0.08
  36   1     0.00   0.01  -0.01     0.01   0.01  -0.01    -0.04  -0.02   0.06
  37   1     0.01   0.01   0.00     0.01   0.01   0.00    -0.05  -0.06  -0.02
  38   1     0.00   0.00   0.02     0.00   0.00   0.02    -0.00  -0.02  -0.06
  39   1     0.00   0.01   0.02     0.00   0.00   0.00    -0.00   0.02   0.06
  40   1     0.01  -0.01   0.01     0.00   0.00  -0.00     0.04  -0.03   0.05
  41   1     0.00  -0.02  -0.00    -0.00  -0.00   0.00     0.04  -0.06  -0.04
  42   1    -0.00  -0.01  -0.02    -0.00  -0.00   0.00    -0.00  -0.02  -0.08
  43   1    -0.01   0.01  -0.01    -0.00   0.00   0.00    -0.05   0.04  -0.04
  44   1    -0.01   0.02   0.00     0.00   0.00  -0.00    -0.05   0.06   0.05
  45   1     0.00   0.01   0.02     0.00   0.01   0.01     0.00   0.02   0.08
  46   1    -0.44   0.27   0.25     0.09  -0.06  -0.03     0.05  -0.00  -0.13
  47   1     0.45  -0.09   0.33    -0.10   0.04  -0.06    -0.05  -0.07  -0.11
  48   1    -0.01  -0.14  -0.49    -0.00   0.04   0.14     0.00  -0.02  -0.08
                     10                     11                     12
                        a                      a                      a 
 Frequencies --   110.1272               135.0448               146.0493
 Red. masses --    10.8214                 9.8844                10.1103
 Frc consts  --     0.0000                 0.0000                 0.0000
 IR Inten    --     2.0705                 1.5409                 1.9964
 Raman Activ --     0.0000                 0.0000                 0.0000
 Depolar     --     0.0000                 0.0000                 0.0000
 Atom AN      X      Y      Z        X      Y      Z        X      Y      Z
   1   6    -0.00  -0.01   0.02    -0.00   0.01   0.08    -0.17  -0.03   0.02
   2   6    -0.03  -0.00   0.07    -0.01  -0.12  -0.27    -0.42  -0.15   0.04
   3   6     0.01   0.08   0.28     0.00   0.05   0.18    -0.07  -0.08   0.05
   4   6     0.02   0.04   0.15     0.01   0.02   0.09     0.04  -0.03   0.01
   5   6     0.02   0.04   0.15     0.02  -0.00   0.06     0.11  -0.09   0.00
   6   6    -0.07  -0.02   0.14    -0.03  -0.00   0.06     0.07  -0.11   0.00
   7   6    -0.10  -0.05   0.02    -0.08   0.02   0.04    -0.03  -0.03   0.00
   8   6    -0.03  -0.03  -0.09    -0.04   0.03  -0.01    -0.09   0.07   0.02
   9   6     0.06   0.04  -0.07     0.05  -0.01  -0.04    -0.01   0.04  -0.00
  10   6     0.08   0.07   0.05     0.08  -0.01   0.00     0.09  -0.04  -0.01
  11   6     0.02  -0.04  -0.09     0.00  -0.01  -0.03     0.04   0.11  -0.04
  12   6     0.02  -0.02  -0.05    -0.01  -0.13  -0.38     0.01   0.10  -0.04
  13   6     0.02  -0.02  -0.05    -0.01  -0.13  -0.38    -0.01   0.11  -0.03
  14   6     0.02  -0.03  -0.09     0.00  -0.01  -0.03    -0.04   0.11  -0.04
  15   6     0.02   0.06   0.15     0.01   0.04   0.09    -0.04  -0.03   0.01
  16   6     0.02   0.06   0.15     0.02   0.04   0.05    -0.11  -0.07   0.05
  17   6     0.08  -0.03   0.09     0.08   0.01  -0.00    -0.09  -0.03   0.03
  18   6     0.06  -0.08  -0.03     0.05  -0.02  -0.03     0.01   0.04  -0.02
  19   6    -0.03  -0.03  -0.09    -0.04  -0.03   0.00     0.09   0.04  -0.05
  20   6    -0.10   0.06  -0.02    -0.08   0.01   0.04     0.02  -0.03   0.01
  21   6    -0.07   0.10   0.09    -0.03   0.04   0.05    -0.08  -0.08   0.06
  22   6     0.01   0.11   0.27     0.00   0.07   0.17     0.07  -0.10   0.01
  23   6    -0.01   0.02   0.02    -0.00   0.03   0.07     0.16  -0.04   0.01
  24   6    -0.03   0.04   0.06    -0.01  -0.07  -0.29     0.42  -0.15   0.07
  25   7    -0.00  -0.10  -0.32    -0.00   0.06   0.19     0.17   0.11  -0.03
  26   6     0.01  -0.09  -0.28     0.00   0.05   0.16     0.02   0.16  -0.06
  27   6     0.01  -0.10  -0.28     0.00   0.06   0.16    -0.01   0.16  -0.05
  28   7    -0.00  -0.11  -0.31    -0.00   0.06   0.19    -0.16   0.11  -0.04
  29   1     0.06   0.01  -0.05    -0.01  -0.11  -0.05    -0.13  -0.09   0.03
  30   1    -0.09  -0.06   0.00     0.01   0.04  -0.12    -0.13  -0.07   0.02
  31   1    -0.00   0.04   0.10    -0.01  -0.07  -0.15    -0.17  -0.00  -0.02
  32   1     0.00   0.05   0.15     0.00   0.02   0.07    -0.02  -0.05   0.02
  33   1    -0.03  -0.02   0.06    -0.01  -0.01   0.02     0.03  -0.05   0.00
  34   1    -0.05  -0.03   0.00    -0.04   0.01   0.01    -0.02  -0.01   0.00
  35   1    -0.01  -0.02  -0.05    -0.02   0.01  -0.01    -0.06   0.04   0.01
  36   1     0.04   0.02  -0.05     0.03  -0.01  -0.02    -0.01   0.03  -0.00
  37   1     0.05   0.04   0.02     0.04  -0.01  -0.00     0.04  -0.01  -0.00
  38   1     0.01   0.00   0.02    -0.01  -0.06  -0.18    -0.00   0.03  -0.02
  39   1     0.01   0.01   0.01    -0.01  -0.06  -0.18     0.00   0.04  -0.01
  40   1     0.04  -0.02   0.04     0.04   0.00  -0.00    -0.04  -0.01   0.01
  41   1     0.03  -0.04  -0.02     0.03  -0.01  -0.02     0.01   0.02  -0.02
  42   1    -0.01  -0.02  -0.05    -0.02  -0.02  -0.00     0.06   0.03  -0.03
  43   1    -0.05   0.03  -0.02    -0.04   0.00   0.02     0.02  -0.01   0.00
  44   1    -0.03   0.05   0.04    -0.01   0.02   0.01    -0.03  -0.04   0.03
  45   1     0.00   0.06   0.15     0.00   0.03   0.07     0.02  -0.05   0.01
  46   1     0.06  -0.04  -0.02    -0.01   0.06  -0.11     0.13  -0.09   0.03
  47   1    -0.08   0.04  -0.04     0.01  -0.10  -0.06     0.13  -0.08   0.03
  48   1    -0.01   0.03   0.10    -0.00  -0.04  -0.16     0.17   0.01   0.01
                     13                     14                     15
                        a                      a                      a 
 Frequencies --   206.4886               214.4601               220.0875
 Red. masses --    10.1348                 9.9804                11.3899
 Frc consts  --     0.0000                 0.0000                 0.0000
 IR Inten    --     0.3444                 0.4147                 0.0180
 Raman Activ --     0.0000                 0.0000                 0.0000
 Depolar     --     0.0000                 0.0000                 0.0000
 Atom AN      X      Y      Z        X      Y      Z        X      Y      Z
   1   6     0.05   0.03   0.10    -0.09   0.03  -0.01     0.03   0.01   0.06
   2   6     0.14  -0.00  -0.10    -0.38  -0.10   0.04     0.07  -0.02  -0.08
   3   6     0.05   0.09   0.28    -0.04   0.00  -0.01     0.03  -0.11  -0.25
   4   6     0.07  -0.00   0.01     0.04   0.06  -0.01     0.04   0.01   0.05
   5   6     0.17  -0.09  -0.08     0.10   0.07  -0.03     0.10  -0.02   0.01
   6   6     0.22  -0.10  -0.09     0.14   0.10  -0.04     0.11  -0.06   0.00
   7   6     0.08   0.04  -0.02     0.12   0.13  -0.05     0.04  -0.01  -0.01
   8   6    -0.07   0.20   0.04     0.11   0.18  -0.07    -0.03   0.10   0.00
   9   6     0.06   0.06  -0.03     0.10   0.16  -0.08     0.04   0.07  -0.02
  10   6     0.20  -0.09  -0.10     0.12   0.13  -0.08     0.13  -0.01  -0.02
  11   6     0.04  -0.07  -0.10     0.01   0.06   0.00     0.03   0.06   0.22
  12   6     0.00  -0.10  -0.10    -0.01   0.04   0.01     0.01   0.02   0.14
  13   6    -0.00  -0.02   0.13    -0.01  -0.02   0.04    -0.01  -0.07  -0.13
  14   6    -0.04   0.00   0.12     0.01  -0.04   0.04    -0.03  -0.08  -0.21
  15   6    -0.07  -0.00  -0.00     0.03  -0.06   0.03    -0.04  -0.02  -0.04
  16   6    -0.17  -0.02   0.11     0.09  -0.08   0.02    -0.10  -0.03   0.00
  17   6    -0.21  -0.00   0.14     0.12  -0.15   0.02    -0.13   0.01   0.02
  18   6    -0.06   0.07  -0.01     0.10  -0.17   0.03    -0.04   0.07  -0.03
  19   6     0.07   0.14  -0.16     0.11  -0.18   0.05     0.03   0.08  -0.06
  20   6    -0.08   0.05  -0.01     0.12  -0.13   0.04    -0.04  -0.00   0.01
  21   6    -0.22  -0.02   0.13     0.14  -0.11   0.04    -0.11  -0.05   0.03
  22   6    -0.05  -0.10  -0.28    -0.04  -0.01  -0.01    -0.03   0.06   0.26
  23   6    -0.04  -0.04  -0.10    -0.09  -0.02   0.01    -0.03  -0.03  -0.06
  24   6    -0.14   0.06   0.08    -0.38   0.11  -0.03    -0.07   0.03   0.08
  25   7    -0.04  -0.02   0.05    -0.09  -0.06   0.03    -0.02  -0.14  -0.39
  26   6    -0.02  -0.02   0.03    -0.04  -0.05   0.03    -0.01  -0.07  -0.17
  27   6     0.02  -0.04  -0.01    -0.04   0.06  -0.01     0.01   0.05   0.18
  28   7     0.05  -0.05  -0.03    -0.08   0.07  -0.01     0.02   0.13   0.40
  29   1     0.06  -0.02  -0.04    -0.12  -0.09   0.04     0.02  -0.03  -0.02
  30   1     0.03   0.05  -0.07    -0.12  -0.07   0.03     0.03   0.03  -0.04
  31   1     0.06  -0.03  -0.04    -0.18   0.03  -0.02     0.03  -0.03  -0.05
  32   1     0.01   0.04   0.14    -0.01  -0.02   0.00     0.01  -0.07  -0.18
  33   1     0.08  -0.04  -0.04     0.04   0.03  -0.02     0.04  -0.03   0.00
  34   1     0.01   0.02  -0.00     0.03   0.03  -0.02     0.01  -0.01  -0.00
  35   1    -0.07   0.11   0.04     0.02   0.06  -0.02    -0.03   0.05   0.01
  36   1     0.00   0.03   0.00     0.03   0.05  -0.02     0.01   0.03  -0.01
  37   1     0.08  -0.04  -0.04     0.05   0.04  -0.02     0.05  -0.01  -0.01
  38   1    -0.00  -0.03  -0.06    -0.01   0.02  -0.00     0.00   0.01   0.06
  39   1     0.00   0.01   0.06    -0.01  -0.01   0.01    -0.00  -0.02  -0.06
  40   1    -0.08  -0.01   0.05     0.05  -0.05   0.01    -0.06   0.00   0.01
  41   1    -0.00   0.02  -0.02     0.02  -0.05   0.01    -0.01   0.03  -0.01
  42   1     0.07   0.06  -0.10     0.02  -0.06   0.02     0.04   0.04  -0.04
  43   1    -0.01   0.02  -0.01     0.03  -0.03   0.01    -0.01  -0.00   0.01
  44   1    -0.09  -0.01   0.06     0.04  -0.04   0.01    -0.04  -0.02   0.02
  45   1    -0.01  -0.05  -0.14    -0.01   0.01  -0.01    -0.01   0.05   0.18
  46   1    -0.06  -0.00   0.05    -0.12   0.08  -0.02    -0.02  -0.02   0.03
  47   1    -0.03   0.08   0.02    -0.12   0.08  -0.02    -0.03   0.05   0.01
  48   1    -0.06   0.01   0.06    -0.18  -0.03   0.01    -0.03   0.01   0.06
                     16                     17                     18
                        a                      a                      a 
 Frequencies --   226.9193               233.0528               253.8937
 Red. masses --    10.7429                10.2329                10.6337
 Frc consts  --     0.0000                 0.0000                 0.0000
 IR Inten    --     0.0068                 0.6933                 0.0607
 Raman Activ --     0.0000                 0.0000                 0.0000
 Depolar     --     0.0000                 0.0000                 0.0000
 Atom AN      X      Y      Z        X      Y      Z        X      Y      Z
   1   6    -0.03   0.11   0.20    -0.03   0.08   0.11     0.02  -0.05   0.09
   2   6    -0.03  -0.03  -0.20     0.05   0.05  -0.10    -0.15  -0.18  -0.00
   3   6    -0.05   0.11   0.17    -0.05   0.15   0.29     0.04  -0.05   0.04
   4   6    -0.09   0.01  -0.02    -0.04   0.04   0.00     0.07  -0.05  -0.05
   5   6    -0.14  -0.03  -0.12     0.05  -0.10  -0.17    -0.00   0.10  -0.01
   6   6    -0.11   0.01  -0.10     0.16  -0.10  -0.18    -0.00   0.21   0.02
   7   6    -0.04  -0.00  -0.00     0.10   0.02  -0.04     0.07   0.15  -0.02
   8   6    -0.03  -0.11   0.07    -0.09   0.13   0.10     0.20   0.06  -0.11
   9   6    -0.11  -0.15   0.07    -0.03  -0.05   0.03     0.07   0.13  -0.07
  10   6    -0.18  -0.12  -0.02     0.07  -0.19  -0.14    -0.03   0.21  -0.03
  11   6    -0.06   0.04  -0.04    -0.05   0.04   0.03     0.04  -0.16  -0.09
  12   6    -0.01   0.05  -0.11    -0.06   0.06   0.15    -0.01  -0.20  -0.09
  13   6     0.01   0.10   0.06    -0.06   0.04   0.15     0.00  -0.11   0.19
  14   6     0.06   0.05   0.01    -0.05  -0.01   0.04    -0.05  -0.08   0.17
  15   6     0.09   0.02   0.01    -0.05  -0.03   0.03    -0.07  -0.01   0.07
  16   6     0.14   0.04   0.11     0.05  -0.03  -0.20     0.01   0.08  -0.05
  17   6     0.18  -0.08   0.09     0.07   0.06  -0.22     0.05   0.18  -0.10
  18   6     0.11  -0.16   0.04    -0.03   0.06  -0.01    -0.06   0.14  -0.02
  19   6     0.03  -0.13   0.01    -0.09  -0.04   0.16    -0.20   0.11   0.06
  20   6     0.04  -0.00   0.00     0.09  -0.04  -0.02    -0.07   0.14  -0.07
  21   6     0.11   0.07   0.07     0.16  -0.04  -0.21     0.01   0.16  -0.14
  22   6     0.05  -0.02  -0.19    -0.05   0.05   0.32    -0.05  -0.07  -0.00
  23   6     0.03  -0.03  -0.22    -0.04   0.00   0.14    -0.03  -0.10  -0.05
  24   6     0.03   0.09   0.18     0.05  -0.10  -0.05     0.15  -0.15   0.11
  25   7     0.03  -0.05  -0.30    -0.04  -0.04  -0.08    -0.02  -0.15  -0.13
  26   6     0.01   0.01  -0.11    -0.04  -0.01  -0.01    -0.01  -0.11   0.03
  27   6    -0.01   0.07   0.08    -0.04   0.01  -0.02     0.01  -0.10   0.04
  28   7    -0.03   0.14   0.26    -0.04  -0.02  -0.10     0.02  -0.05   0.19
  29   1     0.00  -0.09  -0.05     0.03  -0.01  -0.04    -0.05  -0.12   0.02
  30   1    -0.02   0.08  -0.12     0.00   0.06  -0.07    -0.05  -0.05  -0.01
  31   1    -0.01  -0.04  -0.12     0.04  -0.02  -0.04    -0.08  -0.03  -0.04
  32   1    -0.01   0.04   0.05    -0.01   0.06   0.12     0.01  -0.02   0.03
  33   1    -0.03   0.02  -0.04     0.06  -0.03  -0.07    -0.01   0.08  -0.00
  34   1     0.01   0.02   0.00     0.04   0.02  -0.01     0.01   0.04  -0.01
  35   1     0.01  -0.04   0.04    -0.07   0.09   0.07     0.09  -0.02  -0.05
  36   1    -0.03  -0.06   0.03    -0.03  -0.01   0.03     0.02   0.03  -0.02
  37   1    -0.08  -0.05  -0.01     0.02  -0.08  -0.05    -0.01   0.08   0.00
  38   1     0.00   0.00  -0.05    -0.02   0.03   0.07    -0.01  -0.06  -0.06
  39   1    -0.00   0.03   0.04    -0.02   0.02   0.07     0.01  -0.02   0.08
  40   1     0.08  -0.03   0.04     0.02   0.04  -0.09     0.02   0.06  -0.05
  41   1     0.03  -0.07   0.01    -0.03   0.03   0.02    -0.02   0.03  -0.00
  42   1    -0.01  -0.05  -0.00    -0.07  -0.03   0.11    -0.10   0.01   0.05
  43   1    -0.01   0.01  -0.02     0.04  -0.02   0.01    -0.01   0.04  -0.02
  44   1     0.03   0.04   0.02     0.06  -0.03  -0.08     0.01   0.07  -0.05
  45   1     0.01   0.00  -0.06    -0.02   0.03   0.13    -0.01  -0.03  -0.01
  46   1    -0.00  -0.05   0.10     0.03  -0.01  -0.04     0.05  -0.11   0.06
  47   1     0.02   0.12   0.05    -0.00  -0.09  -0.02     0.05  -0.04   0.04
  48   1     0.01   0.04   0.12     0.03  -0.02  -0.05     0.09   0.00   0.05
                     19                     20                     21
                        a                      a                      a 
 Frequencies --   267.1322               285.7136               316.1925
 Red. masses --     9.9517                10.8858                10.6019
 Frc consts  --     0.0000                 0.0000                 0.0000
 IR Inten    --     0.0126                 0.0295                 3.6293
 Raman Activ --     0.0000                 0.0000                 0.0000
 Depolar     --     0.0000                 0.0000                 0.0000
 Atom AN      X      Y      Z        X      Y      Z        X      Y      Z
   1   6     0.08   0.01   0.14    -0.02   0.02  -0.04    -0.20  -0.12   0.08
   2   6    -0.09  -0.15  -0.03     0.09   0.07  -0.04     0.20   0.03  -0.03
   3   6     0.10   0.03   0.21    -0.00  -0.04  -0.12    -0.16  -0.12   0.06
   4   6     0.06  -0.07  -0.06     0.01  -0.03  -0.06     0.00  -0.08  -0.02
   5   6    -0.12   0.02  -0.15     0.07   0.00   0.19     0.02   0.00  -0.01
   6   6    -0.15   0.18  -0.09    -0.03  -0.10   0.18     0.05   0.12   0.02
   7   6     0.00   0.10  -0.02    -0.12  -0.11   0.06     0.06   0.11  -0.01
   8   6     0.13  -0.12  -0.02    -0.07  -0.07  -0.03     0.14   0.09  -0.08
   9   6    -0.10  -0.05   0.04     0.05   0.01  -0.01     0.04   0.11  -0.06
  10   6    -0.25   0.05  -0.03     0.09   0.04   0.15     0.01   0.13  -0.04
  11   6     0.08  -0.08  -0.07     0.01  -0.04  -0.32    -0.01  -0.16  -0.02
  12   6     0.14  -0.01   0.08    -0.01  -0.04  -0.31     0.08  -0.08   0.05
  13   6     0.14   0.05   0.07     0.00   0.15   0.27     0.08   0.10  -0.01
  14   6     0.08   0.02  -0.09    -0.01   0.16   0.28    -0.01   0.12  -0.11
  15   6     0.06   0.02  -0.09    -0.02   0.02   0.07     0.00   0.05  -0.06
  16   6    -0.12  -0.10  -0.11    -0.07  -0.11  -0.16     0.02  -0.01  -0.00
  17   6    -0.25  -0.05   0.00    -0.08  -0.05  -0.14     0.00  -0.13   0.04
  18   6    -0.10   0.07  -0.00    -0.05   0.02  -0.00     0.04  -0.13   0.01
  19   6     0.13   0.09  -0.09     0.06  -0.04   0.06     0.14  -0.12  -0.01
  20   6    -0.00  -0.09   0.04     0.11  -0.12   0.02     0.06  -0.10   0.06
  21   6    -0.15  -0.19   0.03     0.03  -0.18  -0.08     0.05  -0.09   0.08
  22   6     0.10   0.10   0.19     0.00   0.04   0.12    -0.16   0.14  -0.02
  23   6     0.08   0.08   0.12     0.02   0.04   0.02    -0.20   0.15  -0.01
  24   6    -0.09   0.11  -0.11    -0.08   0.08  -0.01     0.20  -0.05  -0.01
  25   7     0.09   0.02   0.01     0.02   0.00  -0.20    -0.22   0.22  -0.02
  26   6     0.07   0.02  -0.03    -0.00   0.09   0.03    -0.09   0.10  -0.06
  27   6     0.07  -0.03  -0.01     0.00   0.05  -0.08    -0.10  -0.11   0.01
  28   7     0.08  -0.01   0.03    -0.02   0.12   0.16    -0.22  -0.18   0.12
  29   1    -0.02  -0.12   0.01     0.02   0.05  -0.02     0.07   0.07  -0.04
  30   1    -0.05  -0.03  -0.03     0.04   0.04  -0.01     0.07   0.08  -0.04
  31   1    -0.07  -0.03  -0.05     0.05  -0.00  -0.00     0.15  -0.08   0.02
  32   1     0.03   0.02   0.10    -0.00  -0.00  -0.01    -0.05  -0.07   0.04
  33   1    -0.06   0.09  -0.04    -0.01  -0.06   0.07     0.01   0.05  -0.00
  34   1     0.02   0.05   0.00    -0.06  -0.05   0.01     0.00   0.03  -0.00
  35   1     0.10  -0.08  -0.01    -0.03  -0.03  -0.04     0.06   0.01  -0.03
  36   1    -0.04  -0.03   0.03     0.03   0.02  -0.03     0.01   0.03  -0.01
  37   1    -0.12   0.02  -0.00     0.04   0.03   0.05     0.01   0.06  -0.00
  38   1     0.05   0.01   0.07    -0.01  -0.03  -0.16     0.06  -0.03   0.05
  39   1     0.05   0.04   0.07     0.01   0.07   0.14     0.06   0.06   0.02
  40   1    -0.12  -0.01   0.01    -0.04  -0.00  -0.06     0.01  -0.05   0.03
  41   1    -0.04   0.05   0.01    -0.03   0.04   0.01     0.01  -0.03   0.01
  42   1     0.10   0.06  -0.05     0.03   0.00   0.04     0.06  -0.03  -0.02
  43   1     0.02  -0.04   0.03     0.05  -0.05   0.02     0.00  -0.03   0.02
  44   1    -0.06  -0.09   0.02     0.01  -0.09  -0.02     0.01  -0.05   0.03
  45   1     0.03   0.04   0.09     0.00   0.00   0.01    -0.05   0.08  -0.01
  46   1    -0.02   0.10  -0.07    -0.02   0.04  -0.01     0.07  -0.07   0.01
  47   1    -0.04   0.01  -0.04    -0.03   0.04  -0.01     0.07  -0.09   0.02
  48   1    -0.06  -0.01  -0.05    -0.05   0.00   0.01     0.15   0.07  -0.04
                     22                     23                     24
                        a                      a                      a 
 Frequencies --   348.7725               363.5945               372.2447
 Red. masses --    10.8651                10.7086                 8.9513
 Frc consts  --     0.0000                 0.0000                 0.0000
 IR Inten    --     2.2848                 0.1772                 0.3571
 Raman Activ --     0.0000                 0.0000                 0.0000
 Depolar     --     0.0000                 0.0000                 0.0000
 Atom AN      X      Y      Z        X      Y      Z        X      Y      Z
   1   6     0.01  -0.11  -0.13    -0.32  -0.12   0.06    -0.01   0.01   0.01
   2   6     0.03  -0.03   0.09     0.13   0.08  -0.03     0.00   0.01  -0.01
   3   6    -0.00  -0.02   0.07    -0.30  -0.12   0.06    -0.00  -0.00   0.00
   4   6    -0.00   0.02   0.12    -0.04  -0.03  -0.01     0.01  -0.00  -0.01
   5   6    -0.06  -0.00  -0.08     0.02  -0.04  -0.02    -0.00   0.00   0.01
   6   6     0.03   0.02  -0.10     0.02   0.06   0.01    -0.19   0.19   0.11
   7   6    -0.01   0.10   0.01     0.02   0.07   0.00     0.16  -0.17  -0.08
   8   6     0.04   0.02   0.01     0.08   0.03  -0.05     0.00  -0.01  -0.01
   9   6     0.02  -0.06  -0.02     0.00   0.06  -0.03    -0.17   0.17   0.09
  10   6    -0.11   0.03  -0.05    -0.02   0.06  -0.02     0.18  -0.17  -0.08
  11   6     0.01   0.08   0.36    -0.03   0.01   0.01     0.00  -0.01  -0.04
  12   6     0.02  -0.07  -0.13    -0.00   0.03   0.01     0.00  -0.01  -0.01
  13   6     0.02  -0.02  -0.15     0.00   0.01  -0.02     0.00  -0.00   0.02
  14   6     0.01   0.16   0.34     0.03   0.01  -0.02    -0.00   0.01   0.02
  15   6     0.00   0.06   0.10     0.04  -0.02   0.02    -0.01   0.00   0.01
  16   6    -0.06  -0.05  -0.07    -0.02  -0.02   0.04     0.00  -0.00  -0.01
  17   6    -0.11  -0.05  -0.02     0.02   0.06  -0.02    -0.22  -0.10   0.21
  18   6     0.02   0.04  -0.06    -0.00   0.06  -0.01     0.22   0.10  -0.21
  19   6     0.04  -0.01   0.02    -0.08   0.06   0.02    -0.01  -0.00   0.01
  20   6    -0.01  -0.08   0.07    -0.02   0.05  -0.04    -0.21  -0.10   0.21
  21   6     0.03  -0.07  -0.07    -0.02   0.04  -0.04     0.24   0.11  -0.24
  22   6    -0.00   0.05   0.04     0.29  -0.14   0.03     0.00  -0.01  -0.00
  23   6     0.01   0.01  -0.17     0.32  -0.14   0.03     0.01  -0.00  -0.00
  24   6     0.02   0.08   0.06    -0.13   0.09  -0.02    -0.00   0.00   0.00
  25   7     0.01  -0.03  -0.32     0.32  -0.13   0.05     0.01  -0.00  -0.00
  26   6     0.02   0.11   0.21     0.04   0.02  -0.01    -0.00   0.00   0.00
  27   6     0.02   0.03   0.23    -0.04   0.02  -0.00    -0.00  -0.00  -0.02
  28   7     0.00  -0.17  -0.27    -0.33  -0.13   0.04    -0.01   0.01   0.01
  29   1    -0.00   0.05   0.02     0.06   0.11  -0.05     0.00   0.00  -0.00
  30   1     0.02  -0.07   0.07     0.06   0.09  -0.04    -0.00   0.01  -0.01
  31   1     0.01   0.01   0.07     0.15  -0.08   0.03     0.00  -0.00  -0.00
  32   1    -0.00  -0.01   0.01    -0.09  -0.08   0.03    -0.00  -0.00   0.00
  33   1     0.03   0.00  -0.05     0.00   0.03  -0.00    -0.11   0.11   0.06
  34   1    -0.01   0.05   0.01    -0.01   0.02   0.00     0.11  -0.11  -0.05
  35   1     0.02   0.00   0.01     0.04  -0.00  -0.02     0.00  -0.01  -0.00
  36   1     0.02  -0.05  -0.00    -0.01   0.02   0.00    -0.11   0.11   0.05
  37   1    -0.06   0.01  -0.01    -0.01   0.03  -0.00     0.11  -0.11  -0.05
  38   1     0.01  -0.07  -0.18     0.01   0.01   0.01    -0.00   0.00   0.01
  39   1     0.01  -0.05  -0.19    -0.01  -0.00  -0.01     0.01   0.00   0.00
  40   1    -0.06  -0.02   0.00     0.01   0.03  -0.02    -0.14  -0.06   0.13
  41   1     0.02   0.04  -0.03     0.01   0.01  -0.01     0.14   0.07  -0.14
  42   1     0.02   0.01   0.01    -0.04   0.01   0.02    -0.01  -0.00   0.01
  43   1    -0.01  -0.04   0.04     0.01   0.02  -0.02    -0.14  -0.07   0.14
  44   1     0.03  -0.04  -0.04    -0.00   0.03  -0.02     0.14   0.07  -0.14
  45   1    -0.00   0.01   0.00     0.09  -0.09   0.02     0.00  -0.01  -0.00
  46   1    -0.01  -0.03   0.05    -0.06   0.11  -0.03    -0.00   0.00   0.00
  47   1     0.02   0.09   0.02    -0.05   0.11  -0.03    -0.00   0.00  -0.00
  48   1     0.01   0.04   0.06    -0.15  -0.08   0.02    -0.00  -0.00   0.00
                     25                     26                     27
                        a                      a                      a 
 Frequencies --   373.1697               418.1635               435.1040
 Red. masses --     9.0521                10.5894                11.0517
 Frc consts  --     0.0000                 0.0000                 0.0000
 IR Inten    --     0.6100                 0.0489                 0.4698
 Raman Activ --     0.0000                 0.0000                 0.0000
 Depolar     --     0.0000                 0.0000                 0.0000
 Atom AN      X      Y      Z        X      Y      Z        X      Y      Z
   1   6    -0.01   0.04   0.02     0.04  -0.01   0.08     0.17  -0.18   0.09
   2   6    -0.02   0.03  -0.03     0.11  -0.02  -0.00     0.10  -0.30   0.10
   3   6     0.00   0.01  -0.02     0.16  -0.11   0.08    -0.05  -0.03  -0.01
   4   6    -0.00  -0.00  -0.03     0.20  -0.15  -0.08    -0.12   0.01   0.03
   5   6     0.02  -0.00   0.01     0.23  -0.20  -0.11    -0.08   0.03   0.04
   6   6     0.23  -0.24  -0.11    -0.06   0.02   0.01     0.06  -0.00   0.00
   7   6    -0.21   0.19   0.10    -0.11   0.08   0.05     0.06   0.01  -0.00
   8   6    -0.02  -0.00   0.01     0.12  -0.18  -0.06    -0.00   0.11  -0.00
   9   6     0.22  -0.21  -0.10    -0.09   0.08   0.07     0.05  -0.01  -0.06
  10   6    -0.20   0.21   0.12    -0.04   0.04   0.05    -0.00   0.02  -0.04
  11   6    -0.00  -0.01  -0.06     0.17   0.09   0.00    -0.14   0.00  -0.05
  12   6     0.01   0.03   0.05     0.02   0.06   0.08    -0.33  -0.03   0.04
  13   6     0.01   0.01   0.05    -0.02   0.00  -0.10    -0.33   0.06   0.02
  14   6    -0.00  -0.03  -0.06    -0.16   0.08  -0.06    -0.14  -0.03  -0.04
  15   6    -0.00  -0.02  -0.02    -0.20  -0.07   0.15    -0.13   0.01   0.03
  16   6     0.02   0.01   0.01    -0.23  -0.09   0.21    -0.09   0.00   0.06
  17   6    -0.16  -0.07   0.18     0.04   0.00  -0.06    -0.00  -0.04  -0.02
  18   6     0.18   0.08  -0.16     0.09   0.02  -0.10     0.05  -0.03  -0.05
  19   6    -0.02   0.01   0.00    -0.13  -0.10   0.15    -0.00  -0.09   0.07
  20   6    -0.17  -0.07   0.16     0.11   0.03  -0.08     0.06  -0.01   0.00
  21   6     0.19   0.11  -0.18     0.06   0.01  -0.02     0.06   0.01   0.00
  22   6     0.00  -0.02  -0.01    -0.17  -0.13  -0.00    -0.05   0.01  -0.03
  23   6    -0.01  -0.02   0.04    -0.04  -0.06  -0.06     0.17   0.20  -0.03
  24   6    -0.02  -0.04  -0.00    -0.11  -0.02   0.02     0.11   0.30  -0.10
  25   7    -0.01  -0.01   0.07    -0.04   0.15  -0.00     0.16   0.15  -0.00
  26   6    -0.01  -0.03  -0.05    -0.04   0.14  -0.05     0.11   0.07  -0.10
  27   6    -0.01  -0.00  -0.05     0.04   0.15  -0.04     0.11  -0.12  -0.03
  28   7    -0.01   0.05   0.04     0.04   0.12  -0.09     0.16  -0.12   0.09
  29   1    -0.00  -0.01  -0.01     0.04  -0.00  -0.01     0.03  -0.12   0.04
  30   1    -0.01   0.02  -0.02     0.03   0.03  -0.02     0.02  -0.10   0.03
  31   1    -0.01   0.00  -0.02     0.06  -0.04  -0.00     0.00  -0.06   0.01
  32   1     0.00   0.01  -0.00     0.05  -0.05   0.03    -0.01   0.04  -0.03
  33   1     0.13  -0.14  -0.06    -0.06   0.04   0.03     0.03  -0.01  -0.01
  34   1    -0.14   0.13   0.07    -0.08   0.07   0.04     0.02  -0.02  -0.01
  35   1    -0.01   0.00   0.00     0.08  -0.09  -0.04    -0.01   0.04   0.01
  36   1     0.14  -0.13  -0.07    -0.07   0.07   0.04     0.03  -0.03  -0.02
  37   1    -0.13   0.13   0.07    -0.06   0.05   0.03     0.02   0.01  -0.01
  38   1     0.01   0.01   0.04    -0.02   0.04   0.04    -0.09  -0.00   0.03
  39   1     0.01   0.01   0.04     0.02   0.01  -0.06    -0.09   0.02   0.02
  40   1    -0.11  -0.05   0.11     0.06   0.02  -0.05     0.02  -0.01  -0.01
  41   1     0.11   0.05  -0.11     0.07   0.03  -0.07     0.03   0.01  -0.03
  42   1    -0.01  -0.00   0.00    -0.08  -0.05   0.08    -0.02  -0.03   0.03
  43   1    -0.11  -0.05   0.10     0.08   0.03  -0.07     0.02   0.01  -0.02
  44   1     0.11   0.06  -0.10     0.06   0.01  -0.04     0.03  -0.00  -0.01
  45   1     0.00  -0.00   0.00    -0.05  -0.06   0.01    -0.01  -0.05   0.00
  46   1    -0.00   0.00  -0.01    -0.04  -0.00   0.01     0.03   0.12  -0.04
  47   1    -0.01  -0.03  -0.00    -0.03   0.04   0.00     0.02   0.10  -0.04
  48   1    -0.01  -0.01  -0.01    -0.06  -0.03   0.02     0.00   0.06  -0.03
                     28                     29                     30
                        a                      a                      a 
 Frequencies --   459.0900               484.5224               499.6200
 Red. masses --    10.2634                11.0295                10.0401
 Frc consts  --     0.0000                 0.0000                 0.0000
 IR Inten    --     2.8567                 0.8868                 1.4886
 Raman Activ --     0.0000                 0.0000                 0.0000
 Depolar     --     0.0000                 0.0000                 0.0000
 Atom AN      X      Y      Z        X      Y      Z        X      Y      Z
   1   6     0.02   0.07  -0.03    -0.14   0.23  -0.03     0.02  -0.09  -0.33
   2   6    -0.06   0.05  -0.02    -0.17   0.31  -0.11    -0.02   0.02   0.00
   3   6     0.07   0.04  -0.07     0.07   0.06  -0.03     0.01   0.09   0.14
   4   6    -0.02   0.06   0.12     0.14   0.03  -0.05    -0.02  -0.05  -0.18
   5   6    -0.27   0.24   0.08     0.06   0.04  -0.03    -0.02   0.04   0.06
   6   6    -0.01   0.01  -0.05    -0.03  -0.03  -0.03     0.02  -0.00   0.04
   7   6     0.12  -0.09  -0.06    -0.05  -0.02  -0.01     0.01  -0.03  -0.02
   8   6    -0.14   0.15   0.08    -0.04  -0.08   0.03    -0.04   0.03  -0.00
   9   6     0.09  -0.11  -0.05     0.00  -0.01   0.05     0.02  -0.02  -0.02
  10   6    -0.03  -0.02  -0.05     0.02  -0.01   0.05     0.02   0.01   0.04
  11   6     0.01  -0.19   0.06     0.13  -0.16   0.05    -0.03  -0.14  -0.25
  12   6     0.21  -0.13   0.02    -0.00  -0.31   0.17    -0.01  -0.03   0.08
  13   6     0.21   0.11  -0.06    -0.00  -0.35   0.05    -0.01   0.05   0.05
  14   6     0.01   0.19  -0.07    -0.13  -0.16   0.08    -0.04  -0.05  -0.28
  15   6    -0.02   0.02   0.13    -0.13   0.06   0.03    -0.03  -0.06  -0.18
  16   6    -0.27  -0.13   0.21    -0.06   0.05  -0.00    -0.02   0.01   0.07
  17   6    -0.03  -0.01  -0.05    -0.02  -0.04  -0.04     0.02   0.02   0.04
  18   6     0.09   0.06  -0.11    -0.01  -0.04  -0.03     0.02  -0.00  -0.03
  19   6    -0.14  -0.07   0.16     0.05  -0.08   0.03    -0.03  -0.03   0.01
  20   6     0.12   0.03  -0.10     0.05  -0.01   0.03     0.01   0.01  -0.03
  21   6    -0.01  -0.04  -0.03     0.02  -0.00   0.04     0.03   0.03   0.03
  22   6     0.06  -0.08  -0.03    -0.06   0.07  -0.02     0.00   0.02   0.17
  23   6     0.02  -0.07   0.02     0.14   0.20  -0.09     0.03  -0.11  -0.32
  24   6    -0.07  -0.05   0.01     0.18   0.31  -0.09    -0.01   0.01   0.01
  25   7     0.01   0.11   0.03     0.12  -0.03   0.00     0.02   0.03  -0.01
  26   6    -0.06   0.09  -0.12     0.03  -0.02   0.02    -0.01   0.14   0.32
  27   6    -0.06  -0.14  -0.05    -0.03  -0.03  -0.02    -0.01   0.08   0.34
  28   7     0.01  -0.07   0.09    -0.12  -0.02   0.01     0.01  -0.03   0.01
  29   1    -0.02  -0.01   0.00    -0.04   0.07  -0.04    -0.04   0.10   0.01
  30   1    -0.03   0.00  -0.00    -0.06   0.10  -0.05     0.03  -0.09   0.08
  31   1    -0.04   0.04  -0.02    -0.05   0.08  -0.04    -0.02   0.05   0.05
  32   1     0.02   0.00  -0.04     0.01  -0.04   0.01     0.01   0.09   0.19
  33   1     0.04  -0.03  -0.04    -0.02  -0.02   0.01     0.01  -0.01   0.02
  34   1     0.10  -0.08  -0.05    -0.01   0.01   0.00     0.01  -0.02  -0.01
  35   1    -0.06   0.07   0.04    -0.01  -0.02   0.00    -0.02   0.01   0.00
  36   1     0.08  -0.10  -0.04     0.00   0.01   0.00     0.02  -0.01  -0.02
  37   1     0.04  -0.06  -0.04    -0.01  -0.01   0.01     0.02   0.00   0.01
  38   1     0.11  -0.06   0.03    -0.03  -0.07   0.05     0.01   0.01   0.10
  39   1     0.11   0.07  -0.01     0.03  -0.09  -0.01     0.02   0.05   0.08
  40   1     0.04   0.02  -0.07     0.01  -0.02  -0.00     0.02   0.00   0.01
  41   1     0.08   0.06  -0.09    -0.00   0.01  -0.01     0.02  -0.00  -0.02
  42   1    -0.06  -0.03   0.08     0.01  -0.02   0.01    -0.01  -0.01   0.01
  43   1     0.10   0.03  -0.08     0.01   0.01  -0.01     0.01   0.01  -0.02
  44   1     0.04   0.00  -0.05     0.01  -0.02   0.01     0.01   0.02   0.00
  45   1     0.02  -0.02  -0.03    -0.01  -0.04   0.00     0.00   0.04   0.21
  46   1    -0.02   0.01  -0.00     0.05   0.08  -0.02    -0.05  -0.07   0.07
  47   1    -0.02   0.00  -0.00     0.05   0.10  -0.02     0.04   0.12   0.01
  48   1    -0.05  -0.04   0.01     0.05   0.09  -0.02    -0.02   0.00   0.07
                     31                     32                     33
                        a                      a                      a 
 Frequencies --   518.7724               543.6885               550.5044
 Red. masses --    10.5286                10.2517                10.6075
 Frc consts  --     0.0000                 0.0000                 0.0000
 IR Inten    --     0.0249                 2.0007                 0.2160
 Raman Activ --     0.0000                 0.0000                 0.0000
 Depolar     --     0.0000                 0.0000                 0.0000
 Atom AN      X      Y      Z        X      Y      Z        X      Y      Z
   1   6    -0.03  -0.08  -0.22    -0.05  -0.07   0.05    -0.11  -0.16  -0.00
   2   6     0.01   0.03   0.00     0.08  -0.06   0.02     0.09  -0.11   0.04
   3   6     0.06  -0.04   0.05     0.14  -0.16   0.06    -0.08  -0.13   0.07
   4   6     0.08   0.06   0.25     0.20  -0.11   0.02     0.07  -0.03   0.04
   5   6    -0.01  -0.01  -0.08    -0.19   0.18   0.04    -0.13   0.12   0.02
   6   6    -0.05   0.00  -0.08    -0.09   0.06  -0.03    -0.07   0.06  -0.03
   7   6    -0.00   0.02   0.02     0.11  -0.10  -0.05     0.08  -0.07  -0.05
   8   6     0.02  -0.03   0.03    -0.14   0.13   0.09    -0.10   0.09   0.07
   9   6    -0.01   0.01   0.04     0.11  -0.12  -0.04     0.07  -0.09  -0.03
  10   6    -0.03  -0.01  -0.07    -0.10   0.07  -0.02    -0.08   0.05  -0.01
  11   6     0.08   0.07   0.22     0.18   0.01  -0.06     0.11   0.22  -0.12
  12   6    -0.00  -0.17  -0.34     0.02  -0.03   0.08     0.09   0.24  -0.07
  13   6     0.01   0.06   0.37    -0.02  -0.07  -0.05     0.09  -0.24   0.08
  14   6    -0.08  -0.08  -0.22    -0.18   0.06   0.04     0.10  -0.25   0.04
  15   6    -0.08  -0.10  -0.24    -0.20  -0.10   0.05     0.07   0.04   0.02
  16   6     0.01   0.03   0.07     0.19   0.12  -0.14    -0.13  -0.08   0.08
  17   6     0.03   0.04   0.06     0.10   0.06  -0.03    -0.08  -0.04   0.02
  18   6     0.01  -0.02  -0.03    -0.11  -0.07   0.10     0.07   0.05  -0.08
  19   6    -0.03  -0.04  -0.00     0.14   0.04  -0.15    -0.10  -0.03   0.11
  20   6     0.00   0.00  -0.02    -0.12  -0.05   0.11     0.08   0.02  -0.07
  21   6     0.05   0.05   0.06     0.10   0.07  -0.01    -0.07  -0.06   0.01
  22   6    -0.06  -0.06  -0.02    -0.14  -0.16   0.05    -0.07   0.15  -0.02
  23   6     0.03   0.07   0.23     0.05  -0.08   0.00    -0.10   0.13  -0.10
  24   6    -0.01   0.02  -0.02    -0.08  -0.06   0.02     0.09   0.11  -0.03
  25   7     0.03   0.04   0.01     0.06   0.12  -0.05    -0.09  -0.16   0.08
  26   6    -0.01  -0.03  -0.24    -0.02   0.18  -0.00     0.07  -0.21   0.08
  27   6     0.01   0.13   0.21     0.02   0.14  -0.11     0.07   0.21  -0.06
  28   7    -0.03   0.03  -0.03    -0.06   0.13  -0.03    -0.09   0.18  -0.03
  29   1    -0.02   0.10   0.00     0.03   0.02  -0.01     0.03   0.04  -0.01
  30   1     0.04  -0.06   0.06     0.03   0.02  -0.01     0.05  -0.01   0.01
  31   1     0.01   0.02   0.05     0.07  -0.06   0.02     0.09  -0.08   0.04
  32   1     0.01  -0.04  -0.02     0.04  -0.08   0.04    -0.02  -0.05   0.04
  33   1    -0.01   0.01  -0.03     0.02  -0.02  -0.04     0.01  -0.01  -0.03
  34   1     0.01   0.02   0.01     0.12  -0.09  -0.05     0.08  -0.06  -0.04
  35   1     0.01  -0.01   0.00    -0.04   0.04   0.03    -0.03   0.03   0.02
  36   1    -0.02  -0.00   0.02     0.10  -0.11  -0.04     0.07  -0.08  -0.03
  37   1    -0.03  -0.01  -0.02     0.01  -0.04  -0.03     0.00  -0.03  -0.02
  38   1    -0.02  -0.06  -0.18    -0.03   0.02   0.03    -0.05   0.11  -0.02
  39   1     0.02   0.06   0.19     0.03  -0.00  -0.03    -0.05  -0.10   0.05
  40   1     0.03   0.00   0.03    -0.01  -0.02   0.05     0.00   0.01  -0.04
  41   1     0.02  -0.02  -0.02    -0.10  -0.06   0.10     0.07   0.05  -0.07
  42   1    -0.01  -0.01   0.00     0.04   0.01  -0.04    -0.03  -0.01   0.03
  43   1    -0.01   0.01  -0.02    -0.12  -0.04   0.09     0.08   0.02  -0.06
  44   1     0.01   0.03   0.02    -0.03   0.00   0.05     0.01  -0.01  -0.03
  45   1    -0.01  -0.02   0.04    -0.04  -0.09   0.01    -0.02   0.07   0.00
  46   1     0.03   0.08  -0.06    -0.03   0.02   0.00     0.03  -0.03   0.02
  47   1    -0.04  -0.08  -0.02    -0.03   0.03  -0.01     0.05   0.00   0.01
  48   1    -0.01  -0.02  -0.05    -0.07  -0.06   0.02     0.09   0.09  -0.02
                     34                     35                     36
                        a                      a                      a 
 Frequencies --   577.7195               586.1067               590.7752
 Red. masses --    11.0427                11.1461                10.4436
 Frc consts  --     0.0000                 0.0000                 0.0000
 IR Inten    --     1.0606                 0.0007                 0.0138
 Raman Activ --     0.0000                 0.0000                 0.0000
 Depolar     --     0.0000                 0.0000                 0.0000
 Atom AN      X      Y      Z        X      Y      Z        X      Y      Z
   1   6    -0.00   0.07   0.21     0.00  -0.04  -0.11    -0.00  -0.15  -0.39
   2   6    -0.00   0.00   0.01    -0.00  -0.00  -0.01     0.01  -0.02  -0.03
   3   6    -0.01  -0.01  -0.03    -0.02   0.02   0.02     0.00   0.06   0.18
   4   6    -0.00  -0.09  -0.27    -0.02   0.04   0.07     0.01   0.01   0.00
   5   6     0.02   0.06   0.13    -0.04  -0.03  -0.12     0.03   0.00   0.02
   6   6     0.15   0.15   0.14    -0.19  -0.17  -0.12     0.09   0.05   0.01
   7   6     0.04   0.07  -0.22    -0.04  -0.14   0.27     0.00   0.08  -0.11
   8   6    -0.11   0.03  -0.07     0.09  -0.01   0.10    -0.02  -0.02  -0.04
   9   6    -0.12  -0.15  -0.11     0.20   0.18   0.12    -0.10  -0.07  -0.03
  10   6    -0.02  -0.08   0.25     0.03   0.13  -0.26    -0.01  -0.08   0.08
  11   6     0.01   0.03   0.08    -0.02  -0.04  -0.13     0.01  -0.05  -0.15
  12   6     0.01   0.01   0.01     0.00   0.05   0.10     0.01   0.05   0.19
  13   6     0.01   0.00   0.01    -0.00  -0.02  -0.11    -0.00  -0.07  -0.19
  14   6     0.01   0.02   0.08     0.02   0.04   0.14    -0.01   0.05   0.15
  15   6    -0.00  -0.09  -0.27     0.02  -0.02  -0.08    -0.01  -0.00  -0.00
  16   6     0.03   0.03   0.14     0.04   0.04   0.11    -0.02  -0.02  -0.01
  17   6    -0.01   0.22   0.15    -0.03   0.26   0.13     0.01  -0.10  -0.01
  18   6    -0.12   0.06  -0.18    -0.20   0.07  -0.21     0.10  -0.03   0.07
  19   6    -0.11  -0.07  -0.04    -0.09  -0.07  -0.07     0.01   0.02   0.04
  20   6     0.04  -0.19  -0.14     0.03  -0.27  -0.13    -0.01   0.12   0.04
  21   6     0.14  -0.04   0.20     0.19  -0.07   0.20    -0.09   0.04  -0.04
  22   6    -0.01  -0.01  -0.02     0.01   0.00  -0.03    -0.01  -0.06  -0.18
  23   6    -0.00   0.06   0.21    -0.00   0.04   0.11    -0.00   0.12   0.40
  24   6    -0.00   0.01   0.01     0.00   0.00   0.01    -0.01   0.00   0.03
  25   7    -0.00  -0.04  -0.16    -0.00  -0.04  -0.11     0.01  -0.07  -0.27
  26   6     0.01   0.03   0.08     0.00   0.01   0.08    -0.00  -0.01  -0.06
  27   6     0.01   0.02   0.08    -0.00  -0.04  -0.07     0.00   0.03   0.05
  28   7     0.00  -0.06  -0.15     0.00   0.03   0.11    -0.01   0.10   0.26
  29   1     0.02  -0.07  -0.00    -0.01   0.03   0.00    -0.04   0.12   0.01
  30   1    -0.03   0.06  -0.05     0.01  -0.03   0.02     0.06  -0.11   0.09
  31   1     0.00  -0.02  -0.03    -0.01   0.01   0.01    -0.00   0.04   0.05
  32   1    -0.00  -0.00  -0.00    -0.00   0.02   0.04     0.00   0.06   0.16
  33   1     0.05  -0.01   0.06    -0.06  -0.01  -0.06     0.01   0.01   0.02
  34   1     0.01  -0.04  -0.08     0.01   0.01   0.09    -0.02   0.03  -0.03
  35   1     0.01   0.00   0.04    -0.03  -0.00  -0.06     0.01  -0.00   0.03
  36   1     0.01  -0.04  -0.08     0.03   0.03   0.07    -0.03   0.00  -0.02
  37   1     0.05  -0.02   0.07    -0.03   0.02  -0.07    -0.00  -0.00   0.03
  38   1    -0.00  -0.02  -0.07     0.01   0.02   0.06     0.00   0.03   0.09
  39   1    -0.00  -0.02  -0.06    -0.01  -0.02  -0.06    -0.00  -0.03  -0.09
  40   1     0.05   0.05   0.04     0.03   0.06   0.05     0.00  -0.02  -0.02
  41   1     0.01  -0.02  -0.09    -0.03  -0.02  -0.08     0.03   0.01   0.01
  42   1     0.01   0.02   0.03     0.03   0.03   0.05    -0.01  -0.01  -0.02
  43   1     0.01  -0.02  -0.09    -0.01  -0.05  -0.07     0.01   0.03   0.01
  44   1     0.05   0.05   0.04     0.06   0.03   0.05    -0.01   0.00  -0.02
  45   1    -0.00   0.00  -0.00     0.00  -0.00  -0.04    -0.00  -0.05  -0.16
  46   1     0.03   0.05  -0.04     0.02   0.02  -0.02     0.05   0.10  -0.08
  47   1    -0.03  -0.07  -0.01    -0.01  -0.03  -0.00    -0.06  -0.13  -0.01
  48   1    -0.00  -0.01  -0.03     0.00  -0.00  -0.02    -0.00  -0.02  -0.06
                     37                     38                     39
                        a                      a                      a 
 Frequencies --   595.5839               599.9322               617.7082
 Red. masses --    11.7238                11.2152                11.3143
 Frc consts  --     0.0000                 0.0000                 0.0000
 IR Inten    --     8.9105                 1.4684                 2.3212
 Raman Activ --     0.0000                 0.0000                 0.0000
 Depolar     --     0.0000                 0.0000                 0.0000
 Atom AN      X      Y      Z        X      Y      Z        X      Y      Z
   1   6     0.06   0.05  -0.01     0.00  -0.09  -0.20    -0.00   0.08  -0.04
   2   6     0.02   0.04  -0.02     0.01  -0.03  -0.01    -0.06   0.16  -0.06
   3   6     0.18  -0.08   0.03    -0.02   0.02   0.04     0.13  -0.07   0.03
   4   6    -0.09  -0.23   0.06    -0.01   0.13   0.29    -0.09  -0.19   0.07
   5   6    -0.16  -0.20   0.10     0.04  -0.02   0.03    -0.17  -0.22   0.10
   6   6     0.08  -0.01   0.17     0.19   0.09   0.00     0.07  -0.03   0.19
   7   6     0.08   0.01   0.15    -0.01   0.19  -0.19     0.07  -0.00   0.18
   8   6     0.15   0.19  -0.09     0.02  -0.05  -0.09     0.17   0.21  -0.10
   9   6    -0.09  -0.01  -0.15    -0.23  -0.11  -0.06    -0.12  -0.02  -0.17
  10   6    -0.09  -0.03  -0.13    -0.02  -0.17   0.11    -0.11  -0.05  -0.15
  11   6    -0.09  -0.03   0.01     0.01   0.01  -0.02    -0.05  -0.04   0.01
  12   6     0.02   0.03  -0.00     0.05   0.02  -0.02     0.00  -0.01   0.01
  13   6     0.02  -0.03   0.01     0.05  -0.03  -0.00     0.00  -0.01  -0.00
  14   6    -0.09   0.03  -0.00     0.00  -0.02  -0.02     0.05  -0.04   0.02
  15   6    -0.09   0.22  -0.09    -0.01   0.08   0.31     0.08  -0.20   0.07
  16   6    -0.15   0.22  -0.05     0.03   0.04   0.01     0.17  -0.24   0.05
  17   6    -0.09  -0.05  -0.13    -0.02   0.20  -0.02     0.11   0.06   0.15
  18   6    -0.09  -0.08  -0.13    -0.24   0.05  -0.12     0.12   0.08   0.15
  19   6     0.15  -0.21   0.05     0.02  -0.02  -0.11    -0.16   0.23  -0.05
  20   6     0.08   0.08   0.12    -0.01  -0.26  -0.04    -0.08  -0.12  -0.14
  21   6     0.08   0.11   0.13     0.19  -0.07   0.06    -0.07  -0.14  -0.13
  22   6     0.19   0.08  -0.03    -0.02   0.02   0.05    -0.13  -0.07   0.02
  23   6     0.06  -0.04   0.03     0.00  -0.06  -0.23     0.00   0.09  -0.03
  24   6     0.02  -0.04   0.01     0.01   0.01  -0.02     0.07   0.16  -0.05
  25   7     0.07  -0.21   0.05    -0.00   0.04   0.19    -0.02   0.11  -0.04
  26   6    -0.17  -0.06   0.02     0.00  -0.05  -0.13     0.04   0.02  -0.01
  27   6    -0.17   0.07  -0.02     0.00  -0.03  -0.14    -0.03   0.02  -0.01
  28   7     0.07   0.20  -0.08    -0.00   0.07   0.17     0.02   0.11  -0.03
  29   1     0.01   0.02  -0.01    -0.02   0.06   0.01    -0.02   0.06  -0.02
  30   1     0.01   0.02  -0.01     0.03  -0.06   0.05    -0.01   0.05  -0.02
  31   1     0.01   0.00  -0.00     0.00   0.01   0.03    -0.01   0.04  -0.01
  32   1     0.05   0.01  -0.00    -0.01   0.00  -0.01     0.03  -0.00   0.00
  33   1     0.04   0.03   0.00     0.03   0.03   0.02     0.04   0.03   0.00
  34   1    -0.03  -0.05   0.03    -0.05   0.07  -0.04    -0.04  -0.06   0.04
  35   1     0.05   0.05  -0.02     0.04  -0.01   0.05     0.05   0.06  -0.03
  36   1    -0.04  -0.05   0.00    -0.09   0.01  -0.02    -0.05  -0.06   0.01
  37   1     0.02   0.03  -0.03    -0.01  -0.01   0.04     0.02   0.03  -0.03
  38   1     0.01   0.01  -0.00     0.01   0.02   0.05     0.01  -0.01   0.00
  39   1     0.01  -0.01  -0.00     0.02   0.01   0.05    -0.00  -0.01   0.00
  40   1     0.02  -0.04  -0.00    -0.01   0.04   0.03    -0.02   0.05   0.00
  41   1    -0.04   0.04  -0.02    -0.09  -0.02  -0.01     0.05  -0.05   0.03
  42   1     0.04  -0.06   0.01     0.04   0.04   0.04    -0.05   0.06  -0.01
  43   1    -0.03   0.06  -0.01    -0.05  -0.08   0.01     0.04  -0.07   0.00
  44   1     0.04  -0.02   0.02     0.03  -0.01   0.04    -0.04   0.02  -0.02
  45   1     0.05  -0.01   0.00    -0.00  -0.01  -0.00    -0.03  -0.00  -0.00
  46   1     0.01  -0.01   0.00    -0.03  -0.05   0.04     0.02   0.05  -0.02
  47   1     0.00  -0.03   0.01     0.03   0.08   0.00     0.02   0.05  -0.02
  48   1     0.01  -0.01  -0.00     0.00   0.01   0.03     0.01   0.04  -0.01
                     40                     41                     42
                        a                      a                      a 
 Frequencies --   643.7396               667.3233               675.7832
 Red. masses --    11.4321                10.3714                 9.3053
 Frc consts  --     0.0000                 0.0000                 0.0000
 IR Inten    --     0.1450                 0.3050                 1.4477
 Raman Activ --     0.0000                 0.0000                 0.0000
 Depolar     --     0.0000                 0.0000                 0.0000
 Atom AN      X      Y      Z        X      Y      Z        X      Y      Z
   1   6    -0.01   0.00   0.07     0.02  -0.01   0.08    -0.01  -0.02   0.01
   2   6     0.02  -0.02   0.02     0.04  -0.09   0.04     0.01  -0.03   0.01
   3   6     0.02  -0.07  -0.10    -0.11   0.05  -0.05     0.02  -0.01   0.03
   4   6     0.04   0.16   0.43    -0.09   0.04  -0.07     0.02  -0.07  -0.16
   5   6    -0.06   0.05   0.01    -0.21   0.20   0.11    -0.23   0.24   0.12
   6   6     0.10  -0.02  -0.08     0.13  -0.15  -0.06     0.12  -0.14  -0.06
   7   6    -0.04   0.13  -0.05    -0.15   0.13   0.10    -0.16   0.14   0.09
   8   6     0.07  -0.07  -0.04     0.13  -0.12  -0.06     0.11  -0.11  -0.05
   9   6    -0.15  -0.01   0.01    -0.14   0.16   0.08    -0.13   0.17   0.09
  10   6     0.02  -0.12  -0.03     0.13  -0.12  -0.09     0.13  -0.10  -0.07
  11   6     0.03  -0.05  -0.14    -0.02   0.02  -0.05     0.02   0.01   0.04
  12   6     0.00  -0.03   0.02     0.19   0.09  -0.02     0.00  -0.01   0.02
  13   6    -0.00  -0.03   0.00     0.18  -0.09   0.04    -0.00  -0.02  -0.01
  14   6    -0.03   0.05   0.14    -0.02  -0.05  -0.03    -0.03  -0.01  -0.04
  15   6    -0.04  -0.13  -0.44    -0.09  -0.07  -0.03    -0.02   0.04   0.17
  16   6     0.06   0.04  -0.03    -0.22  -0.09   0.20     0.23   0.12  -0.23
  17   6    -0.02  -0.08   0.10     0.13   0.04  -0.14    -0.13  -0.04   0.11
  18   6     0.15  -0.01  -0.01    -0.14  -0.08   0.16     0.13   0.08  -0.17
  19   6    -0.07  -0.03   0.08     0.14   0.05  -0.12    -0.11  -0.06   0.10
  20   6     0.04   0.14  -0.04    -0.16  -0.04   0.16     0.16   0.05  -0.16
  21   6    -0.10   0.03   0.08     0.13   0.08  -0.13    -0.12  -0.07   0.13
  22   6    -0.03   0.01   0.12    -0.11  -0.07  -0.02    -0.02  -0.02  -0.02
  23   6     0.01  -0.04  -0.06     0.02   0.06   0.06     0.01  -0.02   0.00
  24   6    -0.02  -0.03  -0.00     0.04   0.09  -0.02    -0.02  -0.03   0.01
  25   7     0.01   0.02  -0.06     0.01  -0.04  -0.06     0.02   0.03   0.02
  26   6    -0.00   0.14   0.31    -0.01  -0.00   0.07     0.00  -0.00  -0.12
  27   6     0.00  -0.08  -0.33    -0.01   0.04   0.06     0.00   0.07   0.09
  28   7    -0.01   0.05   0.03     0.01  -0.00  -0.07    -0.02   0.02  -0.04
  29   1     0.02  -0.02  -0.00     0.02  -0.05   0.01     0.01  -0.00  -0.00
  30   1    -0.00   0.02  -0.02     0.00  -0.01  -0.01     0.01  -0.00   0.00
  31   1     0.02  -0.02  -0.00     0.01  -0.03  -0.00     0.02  -0.02   0.01
  32   1     0.01  -0.05  -0.09    -0.03   0.04  -0.01     0.00   0.00   0.04
  33   1     0.02   0.01  -0.02     0.10  -0.10  -0.05     0.13  -0.14  -0.06
  34   1    -0.03   0.06  -0.00    -0.01  -0.00   0.01     0.03  -0.04  -0.01
  35   1     0.04  -0.02   0.02     0.09  -0.09  -0.06     0.12  -0.12  -0.07
  36   1    -0.06   0.01   0.02    -0.00   0.00   0.01     0.04  -0.03  -0.02
  37   1    -0.01  -0.03  -0.01     0.10  -0.10  -0.06     0.14  -0.13  -0.07
  38   1    -0.01   0.01   0.03     0.05   0.02  -0.02    -0.01  -0.01  -0.02
  39   1     0.01  -0.01  -0.03     0.05  -0.03   0.00     0.01   0.00   0.02
  40   1     0.00  -0.02   0.03     0.11   0.04  -0.10    -0.14  -0.06   0.14
  41   1     0.06   0.00  -0.02    -0.00   0.00   0.01    -0.04  -0.01   0.03
  42   1    -0.04  -0.03  -0.01     0.09   0.04  -0.10    -0.12  -0.06   0.13
  43   1     0.03   0.05  -0.03    -0.01   0.01   0.01    -0.04  -0.02   0.03
  44   1    -0.02   0.02   0.01     0.10   0.05  -0.10    -0.13  -0.07   0.13
  45   1    -0.01   0.01   0.10    -0.03  -0.04   0.02    -0.00  -0.02  -0.03
  46   1    -0.02  -0.02   0.02     0.02   0.05  -0.02    -0.01  -0.00   0.00
  47   1     0.00   0.03   0.00     0.00   0.01  -0.01    -0.01  -0.00   0.00
  48   1    -0.02  -0.01   0.02     0.01   0.02  -0.02    -0.02  -0.02   0.01
                     43                     44                     45
                        a                      a                      a 
 Frequencies --   693.9978               712.5819               728.4507
 Red. masses --     9.3119                10.9732                11.0912
 Frc consts  --     0.0000                 0.0000                 0.0000
 IR Inten    --    16.9744                 9.3885                 8.0523
 Raman Activ --     0.0000                 0.0000                 0.0000
 Depolar     --     0.0000                 0.0000                 0.0000
 Atom AN      X      Y      Z        X      Y      Z        X      Y      Z
   1   6     0.06   0.01   0.07     0.02  -0.06  -0.18     0.05  -0.04   0.00
   2   6     0.04  -0.07   0.04     0.00  -0.02  -0.03     0.11  -0.20   0.07
   3   6    -0.24   0.13  -0.11    -0.10   0.13   0.13     0.10   0.01   0.02
   4   6    -0.20   0.15   0.03    -0.08  -0.06  -0.31    -0.06  -0.05  -0.04
   5   6     0.08  -0.14  -0.03     0.00  -0.04   0.01     0.06   0.08  -0.03
   6   6    -0.03   0.01   0.08    -0.02  -0.01   0.06    -0.01   0.03  -0.10
   7   6     0.08  -0.10   0.03    -0.00  -0.04   0.07    -0.01   0.02  -0.15
   8   6     0.01   0.07  -0.01     0.01   0.04  -0.01    -0.08  -0.12   0.04
   9   6     0.05  -0.08  -0.08     0.01   0.02  -0.02     0.13   0.05   0.10
  10   6    -0.05   0.01  -0.01    -0.01   0.02  -0.01     0.10   0.04   0.07
  11   6    -0.06   0.01  -0.08    -0.01   0.11   0.27    -0.14  -0.09   0.09
  12   6     0.31   0.11  -0.08     0.11   0.07   0.02     0.07  -0.05   0.01
  13   6     0.30  -0.14   0.01     0.11  -0.04   0.06     0.07   0.04  -0.02
  14   6    -0.06  -0.05  -0.06    -0.01   0.07   0.28    -0.14   0.13   0.02
  15   6    -0.20  -0.10   0.11    -0.08  -0.14  -0.29    -0.06   0.02  -0.06
  16   6     0.08   0.10  -0.11     0.00   0.03  -0.01     0.06  -0.08   0.02
  17   6    -0.05  -0.02  -0.00    -0.01  -0.02   0.00     0.10   0.01   0.08
  18   6     0.05   0.01  -0.11     0.01  -0.02  -0.00     0.13   0.02   0.11
  19   6     0.01  -0.06   0.03     0.01  -0.03   0.02    -0.07   0.12  -0.04
  20   6     0.08   0.10  -0.03    -0.00   0.07   0.03    -0.01  -0.11  -0.11
  21   6    -0.03   0.04   0.07    -0.02   0.04   0.04    -0.01  -0.09  -0.06
  22   6    -0.24  -0.17  -0.01    -0.10  -0.02   0.18     0.10   0.00   0.02
  23   6     0.06   0.03   0.06     0.03  -0.06  -0.18     0.05   0.03  -0.03
  24   6     0.04   0.08  -0.01     0.00  -0.00  -0.03     0.12   0.20  -0.06
  25   7     0.05   0.00  -0.08     0.02   0.11   0.21     0.01  -0.24   0.10
  26   6     0.02   0.05   0.08     0.04  -0.06  -0.27    -0.37  -0.06  -0.02
  27   6     0.02   0.01   0.09     0.04  -0.12  -0.26    -0.37   0.04  -0.05
  28   7     0.05  -0.06  -0.07     0.02   0.04   0.23     0.02   0.25  -0.07
  29   1     0.01  -0.07   0.02    -0.02   0.03   0.01     0.03  -0.04   0.01
  30   1    -0.01  -0.03   0.00     0.02  -0.06   0.04     0.04  -0.05   0.02
  31   1    -0.02   0.00  -0.01    -0.02   0.03   0.01     0.06  -0.08   0.03
  32   1    -0.06   0.09  -0.07    -0.03   0.08   0.08     0.03   0.04   0.00
  33   1    -0.09   0.10   0.05     0.02  -0.02   0.00    -0.05   0.03   0.01
  34   1    -0.08   0.04   0.05     0.00  -0.04   0.01    -0.01   0.08  -0.01
  35   1    -0.09   0.11   0.04     0.01  -0.01  -0.03    -0.07   0.02   0.03
  36   1    -0.08   0.05   0.04     0.01  -0.01  -0.01     0.01   0.09   0.01
  37   1    -0.10   0.11   0.05     0.02   0.00  -0.01    -0.03   0.03   0.04
  38   1     0.10   0.04   0.05     0.02  -0.04  -0.17     0.05  -0.04  -0.01
  39   1     0.10  -0.01   0.07     0.02  -0.07  -0.16     0.06   0.03  -0.03
  40   1    -0.10  -0.06   0.10     0.02  -0.00  -0.00    -0.03  -0.00   0.05
  41   1    -0.08  -0.02   0.06     0.01   0.01  -0.01     0.01  -0.07   0.06
  42   1    -0.09  -0.06   0.09     0.01  -0.01  -0.03    -0.07   0.01   0.03
  43   1    -0.08  -0.00   0.06     0.00   0.04  -0.02    -0.01  -0.07   0.04
  44   1    -0.09  -0.04   0.10     0.02   0.02  -0.01    -0.05  -0.02   0.03
  45   1    -0.06  -0.12   0.00    -0.03  -0.01   0.11     0.03  -0.03   0.03
  46   1     0.01   0.07  -0.02    -0.03  -0.02   0.02     0.04   0.04  -0.01
  47   1    -0.01   0.03  -0.02     0.02   0.07  -0.01     0.04   0.05  -0.01
  48   1    -0.02  -0.01  -0.00    -0.02  -0.01   0.02     0.06   0.08  -0.02
                     46                     47                     48
                        a                      a                      a 
 Frequencies --   753.7686               763.8319               765.5734
 Red. masses --     7.4639                10.1880                 5.3988
 Frc consts  --     0.0000                 0.0000                 0.0000
 IR Inten    --     3.2309                 2.4015                16.9682
 Raman Activ --     0.0000                 0.0000                 0.0000
 Depolar     --     0.0000                 0.0000                 0.0000
 Atom AN      X      Y      Z        X      Y      Z        X      Y      Z
   1   6    -0.01  -0.00   0.07    -0.01  -0.04  -0.06    -0.04  -0.01   0.00
   2   6     0.04  -0.08   0.04     0.02  -0.05   0.00    -0.03   0.04  -0.01
   3   6    -0.05  -0.00  -0.07    -0.02   0.04   0.08     0.07  -0.06   0.01
   4   6    -0.02   0.05   0.00    -0.02  -0.07  -0.21     0.07  -0.07  -0.09
   5   6    -0.13   0.12   0.07    -0.10   0.09   0.05    -0.20   0.20   0.10
   6   6     0.06  -0.07  -0.02     0.04  -0.05  -0.01     0.07  -0.08  -0.03
   7   6     0.04  -0.05   0.00     0.02  -0.04   0.01     0.05  -0.05  -0.01
   8   6     0.08  -0.05  -0.04     0.05  -0.04  -0.03     0.10  -0.08  -0.05
   9   6     0.02  -0.05  -0.03     0.03  -0.01  -0.01     0.03  -0.05  -0.03
  10   6     0.06  -0.07  -0.04     0.05  -0.04  -0.02     0.07  -0.09  -0.06
  11   6     0.03  -0.07  -0.16     0.02   0.10   0.32     0.07   0.04   0.04
  12   6    -0.01  -0.12   0.11    -0.01  -0.10  -0.10    -0.07   0.00   0.01
  13   6     0.01  -0.16  -0.01     0.01  -0.02   0.14    -0.07   0.01   0.02
  14   6    -0.03   0.04   0.17    -0.02  -0.11  -0.32     0.07  -0.02   0.04
  15   6     0.02   0.03  -0.03     0.01   0.07   0.21     0.07   0.00  -0.10
  16   6     0.14   0.05  -0.13     0.11   0.05  -0.11    -0.20  -0.09   0.19
  17   6    -0.06  -0.03   0.08    -0.05  -0.02   0.04     0.07   0.04  -0.10
  18   6    -0.03  -0.02   0.05    -0.04  -0.00   0.02     0.03   0.02  -0.06
  19   6    -0.08  -0.02   0.07    -0.05  -0.02   0.05     0.10   0.03  -0.09
  20   6    -0.04  -0.04   0.03    -0.02  -0.04   0.02     0.05   0.04  -0.03
  21   6    -0.06  -0.04   0.06    -0.04  -0.04   0.03     0.07   0.04  -0.07
  22   6     0.05   0.04   0.06     0.01  -0.02  -0.08     0.07   0.05  -0.03
  23   6     0.01  -0.05  -0.06     0.01   0.01   0.08    -0.04   0.01   0.00
  24   6    -0.04  -0.09   0.02    -0.02  -0.04   0.02    -0.03  -0.04   0.01
  25   7     0.01   0.15   0.07     0.01   0.01  -0.15    -0.03   0.04  -0.00
  26   6     0.01  -0.00  -0.32     0.01   0.16   0.36     0.09  -0.02  -0.01
  27   6    -0.00   0.19   0.25    -0.01  -0.09  -0.38     0.09   0.00  -0.03
  28   7    -0.01   0.08  -0.15    -0.01   0.11   0.11    -0.03  -0.03   0.03
  29   1     0.02  -0.03   0.00     0.00   0.00   0.00    -0.00   0.02  -0.01
  30   1     0.01  -0.00  -0.00     0.01  -0.02   0.01    -0.01   0.03  -0.01
  31   1     0.03  -0.04   0.01     0.01  -0.02   0.01     0.01  -0.01  -0.00
  32   1    -0.01   0.03   0.01    -0.00   0.03   0.04     0.02  -0.02   0.08
  33   1    -0.10   0.10   0.05    -0.06   0.06   0.03    -0.12   0.11   0.05
  34   1    -0.15   0.13   0.08    -0.09   0.08   0.05    -0.17   0.17   0.09
  35   1    -0.16   0.17   0.08    -0.11   0.10   0.04    -0.21   0.21   0.11
  36   1    -0.15   0.14   0.07    -0.08   0.09   0.04    -0.18   0.17   0.09
  37   1    -0.11   0.11   0.05    -0.06   0.07   0.03    -0.13   0.12   0.06
  38   1    -0.03  -0.02   0.02    -0.01  -0.01  -0.01    -0.04  -0.00  -0.05
  39   1     0.03  -0.03  -0.00     0.02  -0.01   0.01    -0.04  -0.03  -0.04
  40   1     0.11   0.06  -0.11     0.07   0.04  -0.07    -0.13  -0.06   0.12
  41   1     0.15   0.06  -0.14     0.09   0.05  -0.10    -0.18  -0.07   0.17
  42   1     0.17   0.08  -0.16     0.12   0.06  -0.11    -0.20  -0.10   0.20
  43   1     0.15   0.06  -0.14     0.10   0.04  -0.09    -0.17  -0.07   0.16
  44   1     0.11   0.05  -0.10     0.07   0.03  -0.07    -0.11  -0.06   0.11
  45   1     0.01   0.02  -0.03     0.00  -0.01  -0.05     0.02   0.07   0.05
  46   1    -0.02  -0.03   0.01    -0.00   0.00  -0.00    -0.00  -0.02   0.00
  47   1    -0.01   0.00   0.00    -0.01  -0.01   0.00    -0.01  -0.03   0.01
  48   1    -0.03  -0.04   0.02    -0.02  -0.02   0.01     0.01   0.00  -0.01
                     49                     50                     51
                        a                      a                      a 
 Frequencies --   783.5651               828.0315               860.0314
 Red. masses --    10.5447                 4.5666                11.3219
 Frc consts  --     0.0000                 0.0000                 0.0000
 IR Inten    --     4.8677                 3.4294                10.4292
 Raman Activ --     0.0000                 0.0000                 0.0000
 Depolar     --     0.0000                 0.0000                 0.0000
 Atom AN      X      Y      Z        X      Y      Z        X      Y      Z
   1   6    -0.02   0.03  -0.00    -0.01  -0.01  -0.02    -0.01  -0.02   0.01
   2   6    -0.08   0.16  -0.05    -0.00  -0.00  -0.02    -0.05   0.03  -0.01
   3   6     0.24  -0.15   0.03    -0.00   0.05   0.13     0.02  -0.13  -0.00
   4   6     0.09  -0.15   0.05     0.00  -0.05  -0.13    -0.23  -0.20   0.10
   5   6    -0.09   0.11   0.05    -0.03   0.03   0.01    -0.02  -0.09   0.02
   6   6     0.03  -0.00  -0.07     0.04  -0.04  -0.00     0.04   0.06  -0.06
   7   6     0.01   0.02  -0.10    -0.00  -0.01   0.01    -0.02   0.09  -0.21
   8   6     0.00  -0.09   0.00     0.00   0.00  -0.01    -0.11  -0.11   0.06
   9   6     0.07   0.01   0.04    -0.00   0.02   0.00     0.16   0.11   0.14
  10   6     0.06  -0.01  -0.00    -0.00   0.01   0.02     0.07   0.07   0.01
  11   6    -0.05   0.01  -0.03     0.01   0.07   0.18    -0.22  -0.09   0.05
  12   6     0.04   0.33  -0.11    -0.02  -0.09  -0.27    -0.02  -0.09   0.02
  13   6    -0.03   0.33  -0.11    -0.02  -0.09  -0.27     0.02  -0.09   0.03
  14   6     0.05   0.02   0.02     0.01   0.05   0.18     0.22  -0.11   0.02
  15   6    -0.09  -0.15   0.05    -0.00  -0.04  -0.13     0.23  -0.22   0.05
  16   6     0.10   0.06  -0.10    -0.03  -0.02   0.03     0.02  -0.08   0.04
  17   6    -0.06  -0.01   0.01    -0.00   0.00   0.02    -0.06   0.05  -0.05
  18   6    -0.07  -0.02  -0.04    -0.00  -0.01   0.01    -0.16   0.01  -0.18
  19   6    -0.00  -0.07   0.05     0.00  -0.01  -0.00     0.10  -0.12   0.02
  20   6    -0.01   0.07   0.06    -0.00   0.01   0.00     0.02   0.20   0.12
  21   6    -0.03   0.04   0.06     0.04   0.03  -0.03    -0.04   0.08   0.01
  22   6    -0.24  -0.13   0.06    -0.00   0.04   0.13    -0.02  -0.10   0.08
  23   6     0.02   0.02  -0.02    -0.00  -0.00  -0.02     0.01  -0.02   0.00
  24   6     0.09   0.16  -0.05    -0.00  -0.01  -0.01     0.05   0.03  -0.01
  25   7     0.02  -0.24   0.09     0.00  -0.00   0.00    -0.07   0.27  -0.09
  26   6    -0.01  -0.16   0.01     0.01  -0.01  -0.01     0.10   0.03  -0.01
  27   6     0.00  -0.14   0.09     0.02   0.00  -0.01    -0.10   0.03  -0.01
  28   7    -0.02  -0.24   0.07    -0.00  -0.00  -0.00     0.07   0.26  -0.09
  29   1    -0.02   0.04  -0.02    -0.01   0.03  -0.00     0.00   0.06  -0.03
  30   1    -0.03   0.05  -0.02     0.01  -0.02   0.02     0.00   0.06  -0.02
  31   1    -0.03   0.05  -0.02    -0.00   0.01   0.01     0.04  -0.04   0.01
  32   1     0.06  -0.08   0.06    -0.00  -0.08  -0.21     0.01   0.06   0.08
  33   1    -0.04   0.04   0.01    -0.04   0.04   0.03    -0.01   0.03  -0.01
  34   1    -0.05   0.09   0.01    -0.02   0.00   0.01     0.04   0.06  -0.05
  35   1    -0.09   0.07   0.05    -0.00   0.00  -0.01    -0.00  -0.05  -0.00
  36   1    -0.04   0.09   0.03     0.02  -0.01  -0.01     0.08   0.05  -0.01
  37   1    -0.04   0.04   0.02     0.03  -0.02  -0.01     0.02   0.01   0.00
  38   1     0.06   0.07  -0.02     0.01   0.16   0.50     0.03  -0.05   0.02
  39   1    -0.05   0.07  -0.03     0.01   0.18   0.50    -0.03  -0.05   0.02
  40   1     0.04   0.02  -0.04     0.03   0.01  -0.02    -0.02   0.01  -0.01
  41   1     0.05   0.05  -0.08     0.02   0.00  -0.02    -0.08   0.05  -0.02
  42   1     0.10   0.02  -0.09    -0.00  -0.01  -0.00     0.00  -0.04   0.03
  43   1     0.05   0.07  -0.07    -0.02   0.00   0.01    -0.04   0.08   0.01
  44   1     0.04   0.03  -0.03    -0.04  -0.01   0.05     0.01   0.03  -0.01
  45   1    -0.06  -0.10   0.00    -0.00  -0.06  -0.21    -0.01   0.00  -0.09
  46   1     0.02   0.04  -0.01    -0.01  -0.03   0.02    -0.00   0.06  -0.01
  47   1     0.03   0.05  -0.01     0.01   0.03   0.00     0.00   0.07  -0.02
  48   1     0.03   0.05  -0.01     0.00   0.00   0.01    -0.05  -0.04   0.02
                     52                     53                     54
                        a                      a                      a 
 Frequencies --   865.3165               869.5878               873.0197
 Red. masses --     3.7528                 4.9694                 9.8800
 Frc consts  --     0.0000                 0.0000                 0.0000
 IR Inten    --     1.6347                 8.6973                 6.8581
 Raman Activ --     0.0000                 0.0000                 0.0000
 Depolar     --     0.0000                 0.0000                 0.0000
 Atom AN      X      Y      Z        X      Y      Z        X      Y      Z
   1   6     0.01   0.01   0.03     0.03   0.01   0.02     0.05   0.01  -0.02
   2   6     0.01   0.01   0.03    -0.01   0.06   0.00    -0.02   0.11  -0.05
   3   6    -0.01  -0.10  -0.30     0.05  -0.13  -0.22     0.15  -0.03   0.14
[...]
  19   6     0.00  -0.00   0.00     0.04  -0.06   0.01     0.04  -0.06   0.01
  20   6    -0.00  -0.00  -0.00     0.01   0.09   0.06     0.01   0.07   0.05
  21   6     0.00  -0.00   0.00    -0.07  -0.00  -0.07    -0.05  -0.00  -0.05
  22   6    -0.06  -0.00   0.00    -0.02  -0.00   0.00    -0.02  -0.00   0.00
  23   6     0.00  -0.01   0.00    -0.00  -0.00   0.00    -0.00  -0.00   0.00
  24   6     0.18  -0.17   0.05    -0.01   0.01  -0.00    -0.01   0.00  -0.00
  25   7    -0.00   0.00  -0.00     0.00   0.00  -0.00     0.00   0.00  -0.00
  26   6    -0.00  -0.00   0.00     0.00  -0.00   0.00     0.00   0.00  -0.00
  27   6     0.00  -0.00   0.00     0.00   0.00  -0.00    -0.00   0.00   0.00
  28   7     0.00   0.00  -0.00     0.00  -0.00   0.00    -0.00   0.00  -0.00
  29   1    -0.00  -0.00   0.00     0.00   0.00   0.00    -0.00  -0.00  -0.00
  30   1    -0.00  -0.00   0.00    -0.00  -0.00  -0.00    -0.00   0.00   0.00
  31   1     0.06   0.05  -0.03     0.01   0.01  -0.01    -0.01  -0.01   0.00
  32   1    -0.00   0.00  -0.00     0.07  -0.01   0.00    -0.07   0.01  -0.00
  33   1     0.01   0.00   0.01     0.22   0.13   0.20    -0.20  -0.12  -0.18
  34   1    -0.00   0.00  -0.01    -0.04   0.13  -0.35     0.04  -0.13   0.33
  35   1    -0.00  -0.00   0.00    -0.15  -0.19   0.08     0.17   0.22  -0.10
  36   1     0.00   0.00   0.00     0.18   0.10   0.16    -0.23  -0.13  -0.20
  37   1    -0.00   0.00  -0.00    -0.02   0.06  -0.17     0.03  -0.10   0.25
  38   1     0.00   0.00  -0.00     0.07   0.11  -0.04    -0.01  -0.02   0.01
  39   1     0.00  -0.00   0.00     0.07  -0.12   0.04     0.00  -0.01   0.00
  40   1    -0.01  -0.04  -0.03    -0.02  -0.16  -0.10    -0.03  -0.23  -0.15
  41   1     0.02   0.00   0.02     0.19   0.01   0.20     0.23   0.01   0.24
  42   1    -0.00   0.01  -0.00    -0.15   0.22  -0.05    -0.16   0.23  -0.06
  43   1     0.00   0.01   0.00    -0.05  -0.34  -0.21    -0.04  -0.27  -0.17
  44   1    -0.01  -0.00  -0.01     0.24   0.01   0.26     0.17   0.01   0.19
  45   1     0.20   0.01  -0.01     0.06   0.00  -0.00     0.07   0.00  -0.00
  46   1     0.01  -0.02  -0.01     0.00   0.00   0.00     0.00   0.00   0.00
  47   1     0.02  -0.02   0.01    -0.00   0.00  -0.00     0.00   0.00  -0.00
  48   1    -0.66   0.64  -0.17     0.03  -0.03   0.01     0.02  -0.02   0.00
                    127                    128                    129
                        a                      a                      a 
 Frequencies --  3072.1270              3072.1844              3075.1390
 Red. masses --     1.7844                 1.7860                 1.8090
 Frc consts  --     0.0000                 0.0000                 0.0000
 IR Inten    --     8.2376                 0.7623                63.7450
 Raman Activ --     0.0000                 0.0000                 0.0000
 Depolar     --     0.0000                 0.0000                 0.0000
 Atom AN      X      Y      Z        X      Y      Z        X      Y      Z
   1   6     0.00  -0.00   0.00    -0.00   0.00  -0.00    -0.00   0.00  -0.00
   2   6     0.01   0.01  -0.00    -0.01  -0.01   0.00    -0.02  -0.01   0.01
   3   6     0.05  -0.00   0.00    -0.07   0.01  -0.00    -0.17   0.01  -0.00
   4   6     0.00   0.00  -0.00    -0.00  -0.00   0.00    -0.00  -0.00   0.00
   5   6    -0.00   0.00  -0.00     0.00  -0.00   0.00    -0.00   0.00  -0.00
   6   6    -0.04  -0.02  -0.03     0.08   0.05   0.07    -0.01  -0.01  -0.01
   7   6     0.00  -0.01   0.03    -0.01   0.03  -0.08    -0.00   0.00  -0.01
   8   6    -0.01  -0.01   0.01    -0.00  -0.00  -0.00    -0.02  -0.03   0.01
   9   6     0.05   0.03   0.05    -0.06  -0.04  -0.05     0.03   0.02   0.03
  10   6    -0.01   0.03  -0.08     0.01  -0.04   0.11    -0.00   0.00  -0.01
  11   6    -0.00  -0.00   0.00     0.00   0.00  -0.00    -0.00  -0.00   0.00
  12   6    -0.01  -0.02   0.01     0.01   0.01  -0.00    -0.04  -0.06   0.02
  13   6    -0.01   0.02  -0.01    -0.00   0.00  -0.00    -0.04   0.06  -0.02
  14   6    -0.00   0.00  -0.00    -0.00   0.00   0.00    -0.00   0.00  -0.00
  15   6     0.00  -0.00   0.00     0.00  -0.00   0.00    -0.00   0.00  -0.00
  16   6    -0.00  -0.00  -0.00    -0.00  -0.00  -0.00    -0.00  -0.00  -0.00
  17   6    -0.01  -0.11  -0.07    -0.01  -0.06  -0.04    -0.00  -0.01  -0.00
  18   6     0.07   0.00   0.07     0.04   0.00   0.04     0.03   0.00   0.03
  19   6    -0.01   0.01   0.00     0.00  -0.00   0.00    -0.02   0.03  -0.01
  20   6     0.01   0.06   0.04     0.01   0.05   0.03    -0.00  -0.01  -0.01
  21   6    -0.07  -0.00  -0.07    -0.06  -0.00  -0.06    -0.01  -0.00  -0.01
  22   6     0.07   0.00  -0.00     0.04   0.00  -0.00    -0.15  -0.01   0.00
  23   6     0.00   0.00  -0.00     0.00   0.00  -0.00    -0.00  -0.00   0.00
  24   6     0.02  -0.02   0.00     0.01  -0.01   0.00    -0.03   0.02  -0.01
  25   7    -0.00  -0.00   0.00    -0.00  -0.00   0.00     0.00   0.00  -0.00
  26   6     0.00  -0.00   0.00    -0.00  -0.00  -0.00     0.00  -0.00   0.00
  27   6     0.00   0.00  -0.00     0.00  -0.00   0.00     0.00   0.00  -0.00
  28   7    -0.00   0.00  -0.00     0.00  -0.00   0.00     0.00  -0.00   0.00
  29   1    -0.00  -0.00  -0.00     0.00   0.00   0.01     0.01   0.00   0.02
  30   1    -0.00   0.00   0.00     0.00  -0.00  -0.00     0.00  -0.01  -0.01
  31   1    -0.03  -0.02   0.01     0.04   0.03  -0.02     0.07   0.06  -0.03
  32   1    -0.17   0.01  -0.00     0.23  -0.02   0.00     0.59  -0.05   0.01
  33   1     0.14   0.08   0.13    -0.29  -0.17  -0.26     0.05   0.03   0.04
  34   1    -0.01   0.05  -0.12     0.04  -0.12   0.31     0.00  -0.01   0.02
  35   1     0.04   0.05  -0.02     0.00  -0.00   0.00     0.09   0.11  -0.05
  36   1    -0.19  -0.11  -0.17     0.23   0.13   0.20    -0.13  -0.07  -0.11
  37   1     0.04  -0.12   0.30    -0.05   0.16  -0.40     0.01  -0.02   0.04
  38   1     0.05   0.07  -0.03    -0.03  -0.04   0.01     0.15   0.23  -0.08
  39   1     0.05  -0.09   0.03     0.01  -0.01   0.00     0.15  -0.24   0.08
  40   1     0.06   0.39   0.25     0.03   0.23   0.15     0.00   0.03   0.02
  41   1    -0.26  -0.01  -0.27    -0.14  -0.01  -0.14    -0.11  -0.01  -0.12
  42   1     0.02  -0.04   0.01    -0.01   0.01  -0.00     0.08  -0.12   0.03
  43   1    -0.03  -0.22  -0.14    -0.03  -0.20  -0.13     0.00   0.03   0.02
  44   1     0.25   0.01   0.27     0.20   0.01   0.22     0.04   0.00   0.04
  45   1    -0.23  -0.01   0.01    -0.14  -0.01   0.00     0.53   0.03  -0.02
  46   1    -0.00  -0.00  -0.01    -0.00  -0.00  -0.00     0.01   0.01   0.01
  47   1    -0.00  -0.00   0.01    -0.00  -0.00   0.00     0.01   0.00  -0.01
  48   1    -0.07   0.06  -0.02    -0.04   0.04  -0.01     0.08  -0.08   0.02
                    130                    131                    132
                        a                      a                      a 
 Frequencies --  3075.5170              3075.5698              3080.0119
 Red. masses --     1.7742                 1.8217                 1.8303
 Frc consts  --     0.0000                 0.0000                 0.0000
 IR Inten    --     3.1890                 0.8323                34.3777
 Raman Activ --     0.0000                 0.0000                 0.0000
 Depolar     --     0.0000                 0.0000                 0.0000
 Atom AN      X      Y      Z        X      Y      Z        X      Y      Z
   1   6    -0.00   0.00  -0.00    -0.00   0.00  -0.00    -0.00   0.00  -0.00
   2   6    -0.01  -0.01   0.00    -0.02  -0.01   0.01    -0.00  -0.00   0.00
   3   6    -0.08   0.01  -0.00    -0.17   0.01  -0.00    -0.02   0.00  -0.00
   4   6    -0.00  -0.00   0.00    -0.00  -0.00   0.00    -0.00  -0.00   0.00
   5   6    -0.00  -0.00  -0.00    -0.00  -0.00  -0.00     0.00   0.00  -0.00
   6   6    -0.02  -0.01  -0.02    -0.02  -0.01  -0.02     0.07   0.04   0.06
   7   6     0.00  -0.01   0.04     0.00  -0.01   0.01     0.00  -0.01   0.04
   8   6     0.01   0.01  -0.00    -0.01  -0.01   0.01     0.06   0.08  -0.03
   9   6     0.02   0.01   0.01     0.03   0.02   0.03    -0.02  -0.01  -0.01
  10   6    -0.00   0.01  -0.02    -0.00   0.01  -0.01    -0.01   0.03  -0.09
  11   6     0.00   0.00  -0.00     0.00   0.00  -0.00     0.00   0.00  -0.00
  12   6     0.08   0.13  -0.04     0.00   0.00  -0.00     0.01   0.02  -0.01
  13   6     0.08  -0.13   0.04    -0.00   0.00  -0.00    -0.01   0.01  -0.00
  14   6     0.00  -0.00   0.00    -0.00   0.00  -0.00    -0.00   0.00   0.00
  15   6    -0.00   0.00  -0.00     0.00  -0.01   0.00     0.00  -0.00   0.00
  16   6    -0.00   0.00  -0.00     0.00   0.00   0.00    -0.00   0.01  -0.00
  17   6    -0.00  -0.02  -0.01     0.00   0.01   0.01     0.02   0.09   0.06
  18   6     0.01   0.00   0.01    -0.03  -0.00  -0.04     0.02   0.00   0.02
  19   6     0.01  -0.01   0.00     0.01  -0.02   0.00    -0.07   0.09  -0.02
  20   6     0.00   0.03   0.02    -0.00  -0.01  -0.01    -0.01  -0.04  -0.02
  21   6    -0.02  -0.00  -0.02     0.02   0.00   0.02    -0.08  -0.01  -0.08
  22   6    -0.07  -0.00   0.00     0.19   0.01  -0.01     0.03   0.00  -0.00
  23   6    -0.00  -0.00   0.00     0.01   0.00  -0.00     0.00   0.00  -0.00
  24   6    -0.01   0.01  -0.00     0.03  -0.02   0.01     0.00  -0.00   0.00
  25   7     0.00  -0.00   0.00    -0.00  -0.00   0.00    -0.00  -0.00   0.00
  26   6    -0.00   0.00  -0.00    -0.00  -0.00   0.00     0.00  -0.00  -0.00
  27   6    -0.00  -0.00   0.00     0.00  -0.00   0.00    -0.00  -0.00   0.00
  28   7     0.00   0.00  -0.00     0.00  -0.00   0.00     0.00  -0.00   0.00
  29   1     0.01   0.00   0.01     0.02   0.00   0.02     0.00   0.00   0.00
  30   1     0.00  -0.00  -0.00     0.00  -0.01  -0.01     0.00  -0.00  -0.00
  31   1     0.03   0.02  -0.01     0.06   0.05  -0.03     0.01   0.00  -0.00
  32   1     0.28  -0.02   0.00     0.59  -0.05   0.01     0.08  -0.01   0.00
  33   1     0.07   0.04   0.06     0.07   0.04   0.07    -0.23  -0.13  -0.21
  34   1    -0.02   0.05  -0.14    -0.01   0.02  -0.05    -0.02   0.05  -0.13
  35   1    -0.03  -0.04   0.02     0.04   0.05  -0.02    -0.21  -0.27   0.12
  36   1    -0.06  -0.03  -0.05    -0.12  -0.07  -0.10     0.05   0.03   0.05
  37   1     0.01  -0.03   0.09     0.01  -0.02   0.05     0.04  -0.12   0.31
  38   1    -0.30  -0.47   0.16    -0.01  -0.02   0.01    -0.04  -0.06   0.02
  39   1    -0.29   0.49  -0.16     0.01  -0.01   0.00     0.03  -0.04   0.01
  40   1     0.01   0.08   0.05    -0.01  -0.05  -0.03    -0.05  -0.33  -0.21
  41   1    -0.05  -0.00  -0.05     0.13   0.01   0.13    -0.07  -0.00  -0.07
  42   1    -0.03   0.04  -0.01    -0.05   0.07  -0.02     0.24  -0.34   0.08
  43   1    -0.02  -0.12  -0.08     0.01   0.05   0.03     0.02   0.13   0.08
  44   1     0.06   0.00   0.07    -0.08  -0.00  -0.09     0.27   0.01   0.29
  45   1     0.26   0.01  -0.01    -0.66  -0.04   0.02    -0.10  -0.01   0.00
  46   1     0.00   0.00   0.01    -0.01  -0.01  -0.02    -0.00  -0.00  -0.00
  47   1     0.00   0.00  -0.01    -0.01  -0.00   0.02    -0.00   0.00   0.00
  48   1     0.03  -0.03   0.01    -0.09   0.09  -0.02    -0.01   0.01  -0.00
                    133                    134                    135
                        a                      a                      a 
 Frequencies --  3080.2530              3085.1065              3085.2640
 Red. masses --     1.8290                 1.8782                 1.8788
 Frc consts  --     0.0000                 0.0000                 0.0000
 IR Inten    --     4.0903                 8.3023               188.9987
 Raman Activ --     0.0000                 0.0000                 0.0000
 Depolar     --     0.0000                 0.0000                 0.0000
 Atom AN      X      Y      Z        X      Y      Z        X      Y      Z
   1   6    -0.00   0.00  -0.00    -0.00   0.00  -0.00    -0.00   0.00  -0.00
   2   6    -0.00  -0.00   0.00    -0.00  -0.00   0.00    -0.00  -0.00  -0.00
   3   6    -0.03   0.00  -0.00    -0.02   0.00  -0.00    -0.01   0.00  -0.00
   4   6    -0.00  -0.00   0.00    -0.00  -0.00  -0.00    -0.00  -0.00  -0.00
   5   6     0.00   0.01  -0.00     0.00   0.00   0.00     0.00   0.00   0.00
   6   6     0.08   0.04   0.07    -0.05  -0.03  -0.05    -0.06  -0.04  -0.05
   7   6     0.00  -0.01   0.04    -0.01   0.04  -0.10    -0.01   0.04  -0.10
   8   6     0.07   0.09  -0.04     0.01   0.01  -0.00     0.00   0.00   0.00
   9   6    -0.02  -0.01  -0.02    -0.07  -0.04  -0.06    -0.08  -0.04  -0.07
  10   6    -0.01   0.04  -0.10    -0.01   0.03  -0.08    -0.01   0.03  -0.09
  11   6    -0.00  -0.00   0.00    -0.00  -0.00   0.00     0.00   0.00  -0.00
  12   6    -0.01  -0.02   0.01    -0.02  -0.02   0.01     0.00   0.00  -0.00
  13   6    -0.01   0.02  -0.01     0.02  -0.02   0.01     0.00  -0.01   0.00
  14   6    -0.00   0.00  -0.00     0.00  -0.00  -0.00     0.00  -0.00   0.00
  15   6    -0.00   0.00  -0.00     0.00  -0.00   0.00    -0.00   0.00  -0.00
  16   6     0.00  -0.01   0.00    -0.00  -0.00  -0.00     0.00   0.00   0.00
  17   6    -0.01  -0.08  -0.05     0.01   0.08   0.05    -0.01  -0.07  -0.05
  18   6    -0.02  -0.00  -0.02     0.07   0.00   0.08    -0.07  -0.00  -0.08
  19   6     0.06  -0.08   0.02    -0.01   0.01  -0.00     0.00  -0.00   0.00
  20   6     0.00   0.03   0.02     0.01   0.09   0.06    -0.01  -0.09  -0.06
  21   6     0.07   0.01   0.07     0.06   0.00   0.06    -0.06  -0.00  -0.06
  22   6    -0.03  -0.00   0.00     0.02   0.00  -0.00    -0.01  -0.00   0.00
  23   6    -0.00  -0.00   0.00     0.00   0.00  -0.00    -0.00  -0.00   0.00
  24   6    -0.00   0.00  -0.00     0.00  -0.00   0.00    -0.00   0.00  -0.00
  25   7     0.00   0.00  -0.00    -0.00  -0.00   0.00     0.00   0.00   0.00
  26   6     0.00  -0.00   0.00    -0.00   0.00  -0.00    -0.00  -0.00  -0.00
  27   6     0.00   0.00  -0.00     0.00   0.00  -0.00    -0.00   0.00  -0.00
  28   7     0.00  -0.00   0.00     0.00  -0.00   0.00     0.00  -0.00   0.00
  29   1     0.00   0.00   0.00     0.00   0.00   0.00     0.00   0.00   0.00
  30   1     0.00  -0.00  -0.00     0.00  -0.00  -0.00     0.00  -0.00  -0.00
  31   1     0.01   0.01  -0.00     0.00   0.00  -0.00     0.00   0.00  -0.00
  32   1     0.10  -0.01   0.00     0.06  -0.01   0.00     0.05  -0.00   0.00
  33   1    -0.27  -0.16  -0.24     0.18   0.11   0.17     0.20   0.12   0.18
  34   1    -0.02   0.05  -0.13     0.04  -0.13   0.34     0.04  -0.13   0.35
  35   1    -0.24  -0.31   0.13    -0.02  -0.02   0.01    -0.01  -0.01   0.00
  36   1     0.07   0.04   0.06     0.25   0.14   0.22     0.26   0.15   0.23
  37   1     0.04  -0.14   0.36     0.03  -0.11   0.28     0.04  -0.11   0.29
  38   1     0.05   0.08  -0.03     0.05   0.08  -0.03    -0.01  -0.01   0.00
  39   1     0.05  -0.09   0.03    -0.05   0.08  -0.03    -0.01   0.02  -0.01
  40   1     0.04   0.28   0.18    -0.04  -0.26  -0.17     0.04   0.25   0.16
  41   1     0.06   0.00   0.06    -0.26  -0.01  -0.27     0.25   0.01   0.26
  42   1    -0.20   0.28  -0.07     0.02  -0.02   0.01    -0.01   0.01  -0.00
  43   1    -0.01  -0.09  -0.06    -0.05  -0.32  -0.20     0.04   0.31   0.20
  44   1    -0.23  -0.01  -0.25    -0.19  -0.01  -0.21     0.20   0.01   0.21
  45   1     0.09   0.01  -0.00    -0.06  -0.00   0.00     0.05   0.00  -0.00
  46   1     0.00   0.00   0.00    -0.00  -0.00  -0.00     0.00   0.00   0.00
  47   1     0.00  -0.00  -0.00    -0.00   0.00   0.00     0.00   0.00  -0.00
  48   1     0.01  -0.01   0.00    -0.01   0.01  -0.00     0.00  -0.00   0.00
                    136                    137                    138
                        a                      a                      a 
 Frequencies --  3088.0985              3093.3121              3093.5713
 Red. masses --     1.8806                 1.9225                 1.9224
 Frc consts  --     0.0000                 0.0000                 0.0000
 IR Inten    --    26.2326                65.2353                71.3165
 Raman Activ --     0.0000                 0.0000                 0.0000
 Depolar     --     0.0000                 0.0000                 0.0000
 Atom AN      X      Y      Z        X      Y      Z        X      Y      Z
   1   6     0.00  -0.00   0.00     0.00   0.00  -0.00     0.00  -0.00   0.00
   2   6     0.00   0.00  -0.00     0.00   0.00  -0.00     0.00  -0.00   0.00
   3   6     0.01  -0.00   0.00    -0.00  -0.00   0.00     0.01  -0.00  -0.00
   4   6     0.00   0.00  -0.00     0.00   0.00  -0.00     0.00  -0.00   0.00
   5   6    -0.00  -0.00   0.00     0.00   0.00  -0.00    -0.00  -0.00   0.00
   6   6    -0.02  -0.01  -0.02     0.03   0.02   0.03    -0.03  -0.02  -0.03
   7   6    -0.00   0.00  -0.01     0.01  -0.03   0.09    -0.01   0.03  -0.09
   8   6    -0.01  -0.01   0.01    -0.08  -0.10   0.04     0.08   0.11  -0.05
   9   6    -0.01  -0.01  -0.01    -0.06  -0.04  -0.06     0.07   0.04   0.06
  10   6    -0.00   0.00  -0.01    -0.00   0.02  -0.04     0.00  -0.02   0.04
  11   6     0.01   0.00  -0.00    -0.00  -0.00   0.00     0.00   0.00  -0.00
  12   6     0.10   0.16  -0.05     0.00   0.00  -0.00     0.01   0.01  -0.00
  13   6    -0.10   0.16  -0.05     0.00  -0.00   0.00    -0.01   0.01  -0.00
  14   6    -0.01   0.00  -0.00    -0.00   0.00  -0.00    -0.00   0.00  -0.00
  15   6    -0.00   0.00  -0.00     0.00  -0.00   0.00    -0.00  -0.00   0.00
  16   6     0.00  -0.00   0.00     0.00  -0.00   0.00     0.00  -0.00   0.00
  17   6     0.00   0.01   0.00    -0.00  -0.04  -0.02    -0.00  -0.04  -0.02
  18   6     0.01   0.00   0.01    -0.07  -0.00  -0.07    -0.06  -0.00  -0.07
  19   6     0.01  -0.01   0.00    -0.08   0.11  -0.03    -0.08   0.11  -0.03
  20   6     0.00   0.01   0.01     0.01   0.08   0.05     0.01   0.08   0.05
  21   6     0.02   0.00   0.02     0.03   0.00   0.03     0.03   0.00   0.03
  22   6    -0.01  -0.00   0.00    -0.00   0.00  -0.00    -0.01   0.00   0.00
  23   6    -0.00  -0.00   0.00     0.00  -0.00   0.00    -0.00  -0.00   0.00
  24   6    -0.00   0.00  -0.00     0.00  -0.00   0.00    -0.00  -0.00   0.00
  25   7    -0.00   0.00  -0.00    -0.00   0.00  -0.00     0.00   0.00  -0.00
  26   6     0.00  -0.00   0.00     0.00  -0.00   0.00     0.00  -0.00   0.00
  27   6    -0.00  -0.00   0.00     0.00   0.00  -0.00    -0.00  -0.00   0.00
  28   7     0.00   0.00  -0.00    -0.00  -0.00   0.00    -0.00   0.00  -0.00
  29   1    -0.00  -0.00  -0.00     0.00   0.00   0.00    -0.00  -0.00  -0.00
  30   1    -0.00   0.00   0.00     0.00  -0.00  -0.00    -0.00   0.00   0.00
  31   1    -0.00  -0.00   0.00    -0.00  -0.00   0.00     0.00   0.00  -0.00
  32   1    -0.02   0.00  -0.00     0.00   0.00  -0.00    -0.02   0.00  -0.00
  33   1     0.06   0.04   0.06    -0.10  -0.06  -0.09     0.10   0.06   0.09
  34   1     0.00  -0.01   0.03    -0.03   0.11  -0.28     0.04  -0.11   0.30
  35   1     0.03   0.04  -0.02     0.26   0.34  -0.15    -0.27  -0.36   0.15
  36   1     0.05   0.03   0.04     0.21   0.12   0.19    -0.22  -0.13  -0.20
  37   1     0.00  -0.01   0.03     0.02  -0.05   0.14    -0.02   0.06  -0.14
  38   1    -0.35  -0.55   0.19    -0.00  -0.00   0.00    -0.02  -0.03   0.01
  39   1     0.33  -0.54   0.18    -0.00   0.00  -0.00     0.02  -0.03   0.01
  40   1    -0.00  -0.03  -0.02     0.02   0.13   0.08     0.02   0.12   0.08
  41   1    -0.04  -0.00  -0.05     0.22   0.01   0.24     0.21   0.01   0.23
  42   1    -0.03   0.04  -0.01     0.27  -0.38   0.09     0.26  -0.36   0.09
  43   1    -0.00  -0.03  -0.02    -0.04  -0.26  -0.17    -0.04  -0.25  -0.16
  44   1    -0.06  -0.00  -0.07    -0.10  -0.00  -0.11    -0.09  -0.00  -0.10
  45   1     0.02   0.00  -0.00     0.00   0.00  -0.00     0.02   0.00  -0.00
  46   1     0.00   0.00   0.00     0.00   0.00   0.00     0.00   0.00   0.00
  47   1     0.00  -0.00  -0.00     0.00  -0.00  -0.00     0.00  -0.00  -0.00
  48   1     0.00  -0.00   0.00    -0.00   0.00  -0.00    -0.00   0.00  -0.00
