48
 energy: -71.732826943090 gnorm: 0.000346045081 xtb: 6.6.1 (8d0f1dd)
C           -2.62938670801917        2.56589543147699       -0.89522117700198
C           -3.26054729652042        3.83932398544591       -1.36371394453805
C           -3.42440888181947        1.48172400502556       -0.48902415484129
C           -2.82653273265125        0.32260137767083       -0.04454642901434
C           -3.66042575308758       -0.79671337165778        0.42810090164505
C           -3.51141642670682       -1.30016616008316        1.71747774139453
C           -4.31589026214117       -2.33363535454692        2.16131724130916
C           -5.27428889388372       -2.87941952898010        1.32359192393462
C           -5.43281957610631       -2.37969785229988        0.04188765570505
C           -4.63560790883563       -1.34042459506681       -0.40189743074716
C           -1.41175376534685        0.25240182252168       -0.04868230431581
C           -0.68907154001177       -0.91389410056465        0.32286234922515
C            0.66568117606547       -0.93719597595904        0.29759978170773
C            1.41366505431011        0.20276622853306       -0.10423203189629
C            2.82951180018030        0.22815536358757       -0.13932752588221
C            3.63881138877268       -0.96568269743292        0.16289791426419
C            4.60612121422976       -0.91902799042857        1.16175289909286
C            5.38379515733372       -2.02926420547531        1.43560512350101
C            5.21349265641790       -3.19436100794020        0.70672974749661
C            4.26195047988176       -3.24466305126649       -0.29836417884332
C            3.47654617879557       -2.13900464230738       -0.56849598409032
C            3.45312145520005        1.40871010347442       -0.47916469594404
C            2.68259101027359        2.53381528852704       -0.81567368267812
C            3.34440752110871        3.81998159569125       -1.19916701637109
N            1.37212594853889        2.50986580959543       -0.82086146860617
C            0.73409052666336        1.38866952381493       -0.46996864162782
C           -0.70618172947184        1.40481640102451       -0.46881293213369
N           -1.31952008115243        2.52273503081958       -0.86981135773447
H           -3.99037240011944        3.63955067534069       -2.14633740462428
H           -3.77600549592987        4.32668546818853       -0.53690460009315
H           -2.48943556864103        4.50348729329756       -1.74171466609115
H           -4.50159767282679        1.56734887822275       -0.50147623146823
H           -2.77342563115387       -0.86467037945610        2.37621428943132
H           -4.19453239168790       -2.71429330329066        3.16507345123496
H           -5.89809989805664       -3.69007202617338        1.67016260742222
H           -6.18096738584982       -2.80062809589856       -0.61397016670678
H           -4.75427445334528       -0.95371439946395       -1.40408154039475
H           -1.24250193982066       -1.79326975262215        0.61847669755486
H            1.20013853881319       -1.82746184940806        0.59563237775588
H            4.73386353170166       -0.01057055219098        1.73306951600932
H            6.12619813953906       -1.98519413510415        2.21915316909642
H            5.82295344867063       -4.06030264500463        0.91913708515925
H            4.13148297009836       -4.14889947159949       -0.87497117767197
H            2.74382720699539       -2.17354411681163       -1.36232514090460
H            4.53186741402740        1.46364597395148       -0.51275817126684
H            3.99397435024391        4.16571115180449       -0.39653738525579
H            3.95457363806017        3.67888683608424       -2.09013042576206
H            2.58447358726447        4.56899301588612       -1.39857060713240
