
Host: bohrium-1324-1239078

Timers On : Sat Mar 29 23:10:32 2025
Timers Off: Sat Mar 29 23:10:32 2025

Wall Time:        0.48 seconds

                                                       Time (seconds)
Module                                       User      System        Wall        Calls

--------------------------------------------------------------------------------------

**************************************************************************************

Host: bohrium-1324-1239078

Timers On : Sat Mar 29 23:10:39 2025
Timers Off: Sat Mar 29 23:10:39 2025

Wall Time:        0.83 seconds

                                                       Time (seconds)
Module                                       User      System        Wall        Calls

--------------------------------------------------------------------------------------

**************************************************************************************

Host: bohrium-1324-1239078

Timers On : Sat Mar 29 23:10:44 2025
Timers Off: Sat Mar 29 23:10:44 2025

Wall Time:        0.71 seconds

                                                       Time (seconds)
Module                                       User      System        Wall        Calls

--------------------------------------------------------------------------------------

**************************************************************************************

Host: bohrium-1324-1239078

Timers On : Sat Mar 29 23:13:29 2025
Timers Off: Sat Mar 29 23:13:29 2025

Wall Time:        0.42 seconds

                                                       Time (seconds)
Module                                       User      System        Wall        Calls

--------------------------------------------------------------------------------------

**************************************************************************************

Host: bohrium-1324-1239078

Timers On : Sat Mar 29 23:13:34 2025
Timers Off: Sat Mar 29 23:13:34 2025

Wall Time:        0.70 seconds

                                                       Time (seconds)
Module                                       User      System        Wall        Calls

--------------------------------------------------------------------------------------

**************************************************************************************

Host: bohrium-1324-1239078

Timers On : Sat Mar 29 23:13:39 2025
Timers Off: Sat Mar 29 23:13:39 2025

Wall Time:        0.40 seconds

                                                       Time (seconds)
Module                                       User      System        Wall        Calls

--------------------------------------------------------------------------------------

**************************************************************************************

Host: bohrium-1324-1239078

Timers On : Sat Mar 29 23:14:21 2025
Timers Off: Sat Mar 29 23:14:22 2025

Wall Time:        0.35 seconds

                                                       Time (seconds)
Module                                       User      System        Wall        Calls

--------------------------------------------------------------------------------------

**************************************************************************************

Host: bohrium-1324-1239078

Timers On : Sun Mar 30 00:17:05 2025
Timers Off: Sun Mar 30 00:17:06 2025

Wall Time:        0.57 seconds

                                                       Time (seconds)
Module                                       User      System        Wall        Calls

--------------------------------------------------------------------------------------

**************************************************************************************

Host: bohrium-1324-1239078

Timers On : Sun Mar 30 00:17:28 2025
Timers Off: Sun Mar 30 00:17:29 2025

Wall Time:        0.42 seconds

                                                       Time (seconds)
Module                                       User      System        Wall        Calls

--------------------------------------------------------------------------------------

**************************************************************************************

Host: bohrium-1324-1239078

Timers On : Sun Mar 30 00:18:28 2025
Timers Off: Sun Mar 30 00:18:29 2025

Wall Time:        0.56 seconds

                                                       Time (seconds)
Module                                       User      System        Wall        Calls

--------------------------------------------------------------------------------------

**************************************************************************************

Host: bohrium-1324-1239078

Timers On : Sun Mar 30 00:20:47 2025
Timers Off: Sun Mar 30 00:20:47 2025

Wall Time:        0.52 seconds

                                                       Time (seconds)
Module                                       User      System        Wall        Calls

--------------------------------------------------------------------------------------

**************************************************************************************
