60
 energy: -150.680880846345 gnorm: 0.000241341349 xtb: 6.6.1 (8d0f1dd)
O           -5.59636378472242       -1.29515613881719       -2.10582637397543
C           -4.96443793603796       -0.72199685189657       -1.24886401142518
C           -3.50044494938210       -0.70496857922765       -1.16446496227279
C           -2.76463676379406       -1.37893709833459       -2.12018585071247
C           -1.37924451999430       -1.37175966575844       -2.07309737027316
C           -0.68369818800198       -0.69832675519402       -1.07447229718515
C           -1.41953541064894       -0.01893037587412       -0.06514955515119
C           -0.77067744607197        0.66135397173552        1.00173457590546
C           -1.54756942359625        1.32962763007706        1.94210106686405
C           -2.93203314270176        1.33549818572344        1.87364362214529
C           -3.58488827490850        0.66469478776743        0.85742626178860
C           -2.83888702985129       -0.01981241109170       -0.12429643160940
C           -5.05037550717383        0.68490809159839        0.81702626319657
O           -5.75151043996345        1.25905489835618        1.61781159078693
N           -5.62681182741831       -0.01678641190778       -0.24292909922806
C           -7.04777712950054       -0.01235702293181       -0.30074672905096
C           -7.78534721649526       -0.91668786431320        0.45605847967267
F           -7.14661902795948       -1.79564917545963        1.22592633864286
C           -9.17570060201639       -0.91207811685734        0.41216485653401
F           -9.87561953604279       -1.78036539821375        1.13925796185361
C           -9.83573105356992        0.00630058255049       -0.40055409647699
F          -11.16513497706207        0.01637158118162       -0.44672573938424
C           -9.10698479253889        0.91445602427152       -1.16457152893061
F           -9.74145053786644        1.79235509060498       -1.93867446030696
C           -7.71705814586789        0.90061321869921       -1.10883416861283
F           -7.01343967845078        1.77156758158681       -1.82969803342528
C            0.68168668761034        0.63889103326557        1.07681306889281
C            1.41800959454467       -0.00997564458009        0.04803873059249
C            2.83747303250985       -0.00169001750441        0.10241547799300
C            3.49808246686159        0.61939101823136        1.18230088988811
C            4.96150157503829        0.62223324356161        1.27566742884255
O            5.58649643155186        1.08734597738431        2.19973345336022
N            5.62995583097317        0.01796200256260        0.20654737722718
C            7.04791355740882        0.02834854535902        0.25525388216971
C            7.75513539103711       -1.15769227567013        0.43046950664577
F            7.08822317517588       -2.30003563091741        0.58285553957613
C            9.14560611748088       -1.15779972447451        0.46335826630632
F            9.81497052508603       -2.29714301254936        0.62747460229276
C            9.83824271827366        0.04347907995234        0.33481829507142
F           11.16843721438695        0.05052998306656        0.37074104355175
C            9.14084010182011        1.23725649440514        0.16827526684906
F            9.80605418952264        2.38379681698292        0.04137817657140
C            7.75072295254238        1.22226798721211        0.12174779993362
F            7.08176475890953        2.35755414909804       -0.06953909477991
C            5.05106989848914       -0.59580686695953       -0.90863636973042
O            5.74942935619520       -1.05057981763117       -1.78418564302769
C            3.58526366549183       -0.61434541905361       -0.92400596134081
C            2.93371894446396       -1.22884130944367       -1.97617801850494
C            1.54867458714996       -1.25703882493105       -2.02348325644639
C            0.76984837871092       -0.66656344310530       -1.03386936188708
C            2.76081376436163        1.22262482458531        2.18322642792572
C            1.37589248740414        1.23432203686467        2.12476646507174
H           -3.28936348805469       -1.90498696178406       -2.90313354850096
H           -0.84973789964925       -1.91109728919286       -2.84028433021959
H           -1.08458991891401        1.86685142690332        2.75257303514220
H           -3.52088895483314        1.85901668023184        2.61137347874753
H            3.52411092508986       -1.68712848015010       -2.75493038079871
H            1.08695862635756       -1.75032022109350       -2.86209370487703
H            3.28446666456759        1.68625738554996        3.00534785315989
H            0.84549398407279        1.71982647554800        2.92650329493268
